fcc Ni                                  
   3.53000000000000     
     0.500000    0.500000    0.000000
     0.000000    0.500000    0.500000
     0.500000    0.000000    0.500000
   Ni
     1
Direct
  0.000000  0.000000  0.000000
 
   32   32   32
  152.46      148.56      137.40      120.52      100.08      78.482      57.901      40.022      25.872      15.785    
  9.4746      6.1640      4.7715      4.1467      3.7108      3.4541      3.3705      3.4541      3.7108      4.1467    
  4.7715      6.1640      9.4746      15.785      25.872      40.022      57.901      78.482      100.08      120.52    
  137.40      148.56      148.56      141.03      127.02      108.41      87.491      66.549      47.518      31.741    
  19.883      11.949      7.3884      5.2538      4.4034      3.8877      3.5452      3.3784      3.3784      3.5452    
  3.8878      4.4034      5.2538      7.3884      11.949      19.883      31.741      47.518      66.549      87.491    
  108.41      127.02      141.03      148.56      137.40      127.02      111.33      92.341      72.289      53.215    
  36.697      23.687      14.487      8.8015      5.8719      4.6535      4.0632      3.6451      3.4007      3.3213    
  3.4007      3.6451      4.0633      4.6536      5.8719      8.8016      14.487      23.687      36.697      53.215    
  72.289      92.341      111.33      127.02      137.40      141.03      120.52      108.41      92.341      74.300    
  56.293      40.011      26.625      16.695      10.186      6.5602      4.9233      4.2240      3.7452      3.4329    
  3.2823      3.2823      3.4329      3.7452      4.2241      4.9233      6.5603      10.186      16.695      26.625    
  40.011      56.293      74.300      92.341      108.41      120.52      127.02      127.02      100.08      87.491    
  72.289      56.293      41.177      28.226      18.199      11.294      7.1971      5.1985      4.3587      3.8366    
  3.4691      3.2584      3.1906      3.2584      3.4692      3.8366      4.3588      5.1986      7.1972      11.294    
  18.199      28.226      41.177      56.293      72.289      87.491      100.08      108.41      111.33      108.41    
  78.482      66.549      53.215      40.011      28.226      18.732      11.909      7.6482      5.4303      4.4626    
  3.9114      3.5035      3.2451      3.1226      3.1226      3.2451      3.5036      3.9115      4.4627      5.4304    
  7.6483      11.909      18.732      28.226      40.012      53.215      66.549      78.482      87.491      92.341    
  92.341      87.491      57.901      47.518      36.697      26.625      18.199      11.909      7.8113      5.5639    
  4.5319      3.9642      3.5312      3.2383      3.0742      3.0220      3.0742      3.2384      3.5313      3.9642    
  4.5319      5.5639      7.8114      11.909      18.199      26.625      36.697      47.518      57.901      66.549    
  72.289      74.300      72.289      66.549      40.022      31.741      23.687      16.695      11.294      7.6482    
  5.5639      4.5566      3.9913      3.5490      3.2350      3.0418      2.9516      2.9516      3.0419      3.2351    
  3.5490      3.9914      4.5566      5.5639      7.6483      11.294      16.695      23.687      31.741      40.022    
  47.518      53.215      56.293      56.293      53.215      47.518      25.872      19.883      14.487      10.186    
  7.1971      5.4303      4.5319      3.9913      3.5550      3.2337      3.0231      2.9071      2.8704      2.9071    
  3.0231      3.2338      3.5551      3.9914      4.5320      5.4304      7.1971      10.186      14.487      19.883    
  25.872      31.741      36.697      40.012      41.177      40.012      36.697      31.741      15.785      11.949    
  8.8016      6.5603      5.1985      4.4626      3.9642      3.5490      3.2337      3.0169      2.8855      2.8244    
  2.8244      2.8855      3.0170      3.2337      3.5491      3.9643      4.4627      5.1986      6.5603      8.8015    
  11.949      15.785      19.883      23.687      26.625      28.226      28.226      26.625      23.687      19.883    
  9.4746      7.3884      5.8719      4.9233      4.3587      3.9114      3.5312      3.2350      3.0231      2.8855    
  2.8095      2.7853      2.8095      2.8855      3.0231      3.2351      3.5313      3.9115      4.3588      4.9234    
  5.8719      7.3884      9.4746      11.949      14.487      16.695      18.199      18.732      18.199      16.695    
  14.487      11.949      6.1640      5.2538      4.6535      4.2240      3.8366      3.5035      3.2383      3.0418    
  2.9071      2.8244      2.7853      2.7854      2.8244      2.9071      3.0419      3.2383      3.5036      3.8366    
  4.2241      4.6536      5.2539      6.1640      7.3884      8.8015      10.186      11.294      11.909      11.909    
  11.294      10.186      8.8016      7.3884      4.7716      4.4034      4.0633      3.7452      3.4691      3.2451    
  3.0742      2.9516      2.8704      2.8244      2.8095      2.8244      2.8704      2.9517      3.0743      3.2451    
  3.4691      3.7452      4.0633      4.4034      4.7716      5.2538      5.8719      6.5602      7.1971      7.6483    
  7.8114      7.6483      7.1972      6.5603      5.8719      5.2538      4.1467      3.8878      3.6451      3.4329    
  3.2584      3.1226      3.0220      2.9516      2.9071      2.8855      2.8855      2.9071      2.9517      3.0220    
  3.1226      3.2584      3.4329      3.6451      3.8877      4.1467      4.4034      4.6536      4.9233      5.1985    
  5.4304      5.5639      5.5639      5.4304      5.1986      4.9233      4.6536      4.4034      3.7108      3.5452    
  3.4007      3.2823      3.1906      3.1226      3.0742      3.0419      3.0231      3.0170      3.0231      3.0418    
  3.0742      3.1226      3.1906      3.2824      3.4007      3.5452      3.7108      3.8877      4.0633      4.2241    
  4.3588      4.4627      4.5319      4.5566      4.5319      4.4627      4.3588      4.2240      4.0633      3.8878    
  3.4541      3.3784      3.3213      3.2823      3.2584      3.2451      3.2383      3.2351      3.2337      3.2337    
  3.2351      3.2383      3.2451      3.2584      3.2824      3.3214      3.3785      3.4541      3.5452      3.6451    
  3.7452      3.8366      3.9115      3.9642      3.9914      3.9913      3.9642      3.9115      3.8366      3.7452    
  3.6451      3.5452      3.3705      3.3784      3.4007      3.4329      3.4691      3.5036      3.5313      3.5490    
  3.5551      3.5490      3.5313      3.5035      3.4691      3.4328      3.4007      3.3785      3.3705      3.3785    
  3.4007      3.4328      3.4691      3.5035      3.5313      3.5490      3.5551      3.5490      3.5313      3.5036    
  3.4691      3.4329      3.4007      3.3784      3.4541      3.5452      3.6451      3.7452      3.8366      3.9115    
  3.9642      3.9913      3.9914      3.9642      3.9115      3.8366      3.7452      3.6451      3.5452      3.4541    
  3.3785      3.3214      3.2824      3.2584      3.2451      3.2383      3.2351      3.2337      3.2337      3.2351    
  3.2383      3.2451      3.2584      3.2823      3.3213      3.3784      3.7108      3.8878      4.0633      4.2240    
  4.3588      4.4627      4.5319      4.5566      4.5319      4.4627      4.3588      4.2241      4.0633      3.8877    
  3.7108      3.5452      3.4007      3.2824      3.1906      3.1226      3.0742      3.0418      3.0231      3.0170    
  3.0231      3.0419      3.0742      3.1226      3.1906      3.2823      3.4007      3.5452      4.1467      4.4034    
  4.6536      4.9233      5.1986      5.4304      5.5639      5.5639      5.4304      5.1985      4.9233      4.6536    
  4.4034      4.1467      3.8877      3.6451      3.4329      3.2584      3.1226      3.0220      2.9517      2.9071    
  2.8855      2.8855      2.9071      2.9516      3.0220      3.1226      3.2584      3.4329      3.6451      3.8878    
  4.7716      5.2538      5.8719      6.5603      7.1972      7.6483      7.8114      7.6483      7.1971      6.5602    
  5.8719      5.2538      4.7716      4.4034      4.0633      3.7452      3.4691      3.2451      3.0743      2.9517    
  2.8704      2.8244      2.8095      2.8244      2.8704      2.9516      3.0742      3.2451      3.4691      3.7452    
  4.0633      4.4034      6.1640      7.3884      8.8016      10.186      11.294      11.909      11.909      11.294    
  10.186      8.8015      7.3884      6.1640      5.2539      4.6536      4.2241      3.8366      3.5036      3.2383    
  3.0419      2.9071      2.8244      2.7854      2.7853      2.8244      2.9071      3.0418      3.2383      3.5035    
  3.8366      4.2240      4.6535      5.2538      9.4746      11.949      14.487      16.695      18.199      18.732    
  18.199      16.695      14.487      11.949      9.4746      7.3884      5.8719      4.9234      4.3588      3.9115    
  3.5313      3.2351      3.0231      2.8855      2.8095      2.7853      2.8095      2.8855      3.0231      3.2350    
  3.5312      3.9114      4.3587      4.9233      5.8719      7.3884      15.785      19.883      23.687      26.625    
  28.226      28.226      26.625      23.687      19.883      15.785      11.949      8.8015      6.5603      5.1986    
  4.4627      3.9643      3.5491      3.2337      3.0170      2.8855      2.8244      2.8244      2.8855      3.0169    
  3.2337      3.5490      3.9642      4.4626      5.1985      6.5603      8.8016      11.949      25.872      31.741    
  36.697      40.012      41.177      40.012      36.697      31.741      25.872      19.883      14.487      10.186    
  7.1971      5.4304      4.5320      3.9914      3.5551      3.2338      3.0231      2.9071      2.8704      2.9071    
  3.0231      3.2337      3.5550      3.9913      4.5319      5.4303      7.1971      10.186      14.487      19.883    
  40.022      47.518      53.215      56.293      56.293      53.215      47.518      40.022      31.741      23.687    
  16.695      11.294      7.6483      5.5639      4.5566      3.9914      3.5490      3.2351      3.0419      2.9516    
  2.9516      3.0418      3.2350      3.5490      3.9913      4.5566      5.5639      7.6482      11.294      16.695    
  23.687      31.741      57.901      66.549      72.289      74.300      72.289      66.549      57.901      47.518    
  36.697      26.625      18.199      11.909      7.8114      5.5639      4.5319      3.9642      3.5313      3.2384    
  3.0742      3.0220      3.0742      3.2383      3.5312      3.9641      4.5319      5.5639      7.8113      11.909    
  18.199      26.625      36.697      47.518      78.482      87.491      92.341      92.341      87.491      78.482    
  66.549      53.215      40.012      28.226      18.732      11.909      7.6483      5.4304      4.4627      3.9115    
  3.5036      3.2451      3.1226      3.1226      3.2451      3.5035      3.9114      4.4626      5.4303      7.6482    
  11.909      18.732      28.226      40.011      53.215      66.549      100.08      108.41      111.33      108.41    
  100.08      87.491      72.289      56.293      41.177      28.226      18.199      11.294      7.1972      5.1986    
  4.3588      3.8366      3.4692      3.2584      3.1906      3.2584      3.4691      3.8366      4.3587      5.1985    
  7.1971      11.294      18.199      28.226      41.177      56.293      72.289      87.491      120.52      127.02    
  127.02      120.52      108.41      92.341      74.300      56.293      40.011      26.625      16.695      10.186    
  6.5603      4.9233      4.2241      3.7452      3.4329      3.2823      3.2823      3.4329      3.7452      4.2240    
  4.9233      6.5602      10.186      16.695      26.625      40.011      56.293      74.300      92.341      108.41    
  137.40      141.03      137.40      127.02      111.33      92.341      72.289      53.215      36.697      23.687    
  14.487      8.8016      5.8719      4.6536      4.0633      3.6451      3.4007      3.3213      3.4007      3.6451    
  4.0632      4.6535      5.8719      8.8015      14.487      23.687      36.697      53.215      72.289      92.341    
  111.33      127.02      148.56      148.56      141.03      127.02      108.41      87.491      66.549      47.518    
  31.741      19.883      11.949      7.3884      5.2538      4.4034      3.8878      3.5452      3.3784      3.3784    
  3.5452      3.8877      4.4034      5.2538      7.3884      11.949      19.883      31.741      47.518      66.549    
  87.491      108.41      127.02      141.03      148.56      141.03      127.02      108.41      87.491      66.549    
  47.518      31.741      19.883      11.949      7.3884      5.2538      4.4034      3.8877      3.5452      3.3784    
  3.3784      3.5452      3.8878      4.4034      5.2538      7.3884      11.949      19.883      31.741      47.518    
  66.549      87.491      108.41      127.02      141.03      148.56      141.03      130.36      114.24      94.743    
  74.171      54.613      37.677      24.329      14.871      9.0032      5.9617      4.6924      4.0931      3.6699    
  3.4219      3.3413      3.4219      3.6700      4.0931      4.6924      5.9618      9.0033      14.871      24.329    
  37.677      54.614      74.171      94.743      114.24      130.36      141.03      144.76      127.02      114.24    
  97.278      78.268      59.315      42.187      28.093      17.607      10.693      6.8012      5.0235      4.2858    
  3.7969      3.4759      3.3206      3.3206      3.4759      3.7969      4.2858      5.0236      6.8012      10.693    
  17.607      28.093      42.187      59.315      78.268      97.278      114.24      127.02      133.90      133.90    
  108.41      94.743      78.268      60.962      44.622      30.613      19.731      12.181      7.6431      5.3889    
  4.4533      3.9158      3.5340      3.3136      3.2425      3.3137      3.5341      3.9158      4.4534      5.3890    
  7.6432      12.181      19.731      30.613      44.622      60.962      78.268      94.743      108.41      117.47    
  120.64      117.47      87.491      74.171      59.315      44.622      31.500      20.891      13.202      8.3269    
  5.7320      4.5972      4.0171      3.5894      3.3157      3.1853      3.1853      3.3158      3.5894      4.0172    
  4.5972      5.7321      8.3270      13.202      20.891      31.500      44.622      59.315      74.171      87.491    
  97.565      103.00      103.00      97.565      66.549      54.613      42.187      30.613      20.891      13.565    
  8.7103      5.9785      4.7109      4.0938      3.6359      3.3221      3.1450      3.0884      3.1450      3.3221    
  3.6359      4.0939      4.7110      5.9786      8.7104      13.565      20.891      30.613      42.187      54.613    
  66.549      76.507      83.127      85.449      83.127      76.507      47.518      37.677      28.093      19.731    
  13.202      8.7103      6.0683      4.7752      4.1414      3.6690      3.3289      3.1177      3.0187      3.0187    
  3.1178      3.3289      3.6691      4.1415      4.7753      6.0684      8.7104      13.202      19.731      28.093    
  37.677      47.518      56.430      63.212      66.880      66.880      63.212      56.430      31.741      24.329    
  17.607      12.181      8.3270      5.9785      4.7752      4.1575      3.6862      3.3337      3.1007      2.9718    
  2.9310      2.9718      3.1007      3.3338      3.6863      4.1576      4.7753      5.9786      8.3270      12.181    
  17.607      24.329      31.741      38.988      45.102      49.194      50.634      49.194      45.102      38.988    
  19.883      14.871      10.693      7.6431      5.7320      4.7109      4.1414      3.6862      3.3354      3.0924    
  2.9447      2.8760      2.8760      2.9447      3.0924      3.3355      3.6863      4.1415      4.7110      5.7320    
  7.6431      10.693      14.871      19.883      25.191      30.098      33.879      35.939      35.939      33.879    
  30.098      25.191      11.949      9.0033      6.8012      5.3889      4.5972      4.0938      3.6690      3.3337    
  3.0924      2.9358      2.8496      2.8223      2.8496      2.9358      3.0924      3.3338      3.6691      4.0940    
  4.5973      5.3890      6.8012      9.0032      11.949      15.375      18.848      21.849      23.886      24.607    
  23.886      21.849      18.848      15.375      7.3884      5.9618      5.0235      4.4533      4.0171      3.6359    
  3.3289      3.1007      2.9447      2.8496      2.8051      2.8051      2.8496      2.9447      3.1007      3.3289    
  3.6360      4.0172      4.4534      5.0236      5.9618      7.3884      9.2568      11.364      13.396      15.005    
  15.895      15.895      15.005      13.396      11.364      9.2569      5.2538      4.6924      4.2858      3.9158    
  3.5894      3.3221      3.1177      2.9718      2.8760      2.8223      2.8051      2.8223      2.8761      2.9718    
  3.1178      3.3221      3.5894      3.9158      4.2859      4.6924      5.2538      6.0658      7.1030      8.2336    
  9.2606      9.9796      10.238      9.9796      9.2607      8.2337      7.1031      6.0658      4.4034      4.0931    
  3.7969      3.5340      3.3157      3.1450      3.0187      2.9310      2.8760      2.8496      2.8496      2.8761    
  2.9310      3.0188      3.1450      3.3157      3.5340      3.7969      4.0931      4.4034      4.7299      5.1345    
  5.6220      6.1283      6.5519      6.7939      6.7939      6.5520      6.1283      5.6220      5.1345      4.7299    
  3.8878      3.6699      3.4759      3.3136      3.1853      3.0884      3.0187      2.9718      2.9447      2.9358    
  2.9447      2.9718      3.0188      3.0885      3.1853      3.3137      3.4759      3.6699      3.8877      4.1159    
  4.3379      4.5429      4.7428      4.9261      5.0588      5.1075      5.0588      4.9262      4.7428      4.5429    
  4.3379      4.1159      3.5452      3.4219      3.3206      3.2425      3.1853      3.1450      3.1178      3.1007    
  3.0924      3.0924      3.1007      3.1177      3.1450      3.1853      3.2426      3.3207      3.4219      3.5452    
  3.6850      3.8322      3.9756      4.1038      4.2075      4.2798      4.3170      4.3170      4.2798      4.2074    
  4.1038      3.9756      3.8323      3.6850      3.3784      3.3413      3.3206      3.3137      3.3158      3.3221    
  3.3289      3.3338      3.3355      3.3337      3.3289      3.3221      3.3157      3.3137      3.3207      3.3413    
  3.3785      3.4321      3.4988      3.5725      3.6456      3.7106      3.7613      3.7933      3.8043      3.7933    
  3.7613      3.7106      3.6457      3.5725      3.4988      3.4321      3.3784      3.4219      3.4759      3.5341    
  3.5894      3.6359      3.6691      3.6863      3.6863      3.6691      3.6359      3.5894      3.5340      3.4759    
  3.4219      3.3785      3.3498      3.3372      3.3387      3.3503      3.3667      3.3830      3.3957      3.4025    
  3.4025      3.3957      3.3830      3.3667      3.3503      3.3387      3.3371      3.3497      3.5452      3.6700    
  3.7970      3.9158      4.0172      4.0939      4.1414      4.1575      4.1415      4.0939      4.0172      3.9158    
  3.7969      3.6699      3.5452      3.4321      3.3372      3.2631      3.2090      3.1714      3.1464      3.1305    
  3.1216      3.1187      3.1216      3.1305      3.1464      3.1714      3.2089      3.2630      3.3371      3.4321    
  3.8878      4.0931      4.2858      4.4533      4.5972      4.7109      4.7752      4.7752      4.7109      4.5972    
  4.4534      4.2858      4.0931      3.8877      3.6850      3.4988      3.3387      3.2090      3.1089      3.0350    
  2.9832      2.9501      2.9340      2.9340      2.9502      2.9832      3.0350      3.1088      3.2089      3.3387    
  3.4988      3.6850      4.4034      4.6924      5.0236      5.3890      5.7321      5.9786      6.0684      5.9785    
  5.7320      5.3890      5.0236      4.6924      4.4034      4.1159      3.8323      3.5725      3.3503      3.1714    
  3.0350      2.9365      2.8704      2.8325      2.8201      2.8325      2.8704      2.9364      3.0349      3.1714    
  3.3503      3.5725      3.8323      4.1159      5.2538      5.9618      6.8012      7.6432      8.3270      8.7104    
  8.7104      8.3270      7.6431      6.8012      5.9617      5.2538      4.7299      4.3379      3.9756      3.6456    
  3.3667      3.1464      2.9832      2.8704      2.8004      2.7671      2.7671      2.8004      2.8704      2.9832    
  3.1464      3.3667      3.6456      3.9756      4.3379      4.7299      7.3884      9.0033      10.693      12.181    
  13.202      13.565      13.202      12.181      10.693      9.0032      7.3884      6.0658      5.1345      4.5429    
  4.1039      3.7107      3.3830      3.1305      2.9502      2.8325      2.7671      2.7462      2.7671      2.8325    
  2.9501      3.1305      3.3830      3.7106      4.1038      4.5428      5.1344      6.0658      11.949      14.871    
  17.607      19.731      20.891      20.891      19.731      17.607      14.871      11.949      9.2568      7.1030    
  5.6220      4.7428      4.2075      3.7613      3.3957      3.1216      2.9340      2.8201      2.7671      2.7671    
  2.8201      2.9340      3.1216      3.3956      3.7613      4.2074      4.7427      5.6220      7.1031      9.2569    
  19.883      24.329      28.093      30.613      31.500      30.613      28.093      24.329      19.883      15.375    
  11.364      8.2337      6.1283      4.9262      4.2798      3.7934      3.4025      3.1187      2.9340      2.8325    
  2.8004      2.8325      2.9340      3.1187      3.4024      3.7933      4.2797      4.9261      6.1283      8.2337    
  11.364      15.375      31.741      37.677      42.187      44.622      44.622      42.187      37.677      31.741    
  25.191      18.848      13.396      9.2606      6.5519      5.0588      4.3171      3.8043      3.4025      3.1216    
  2.9502      2.8704      2.8704      2.9501      3.1216      3.4024      3.8042      4.3170      5.0588      6.5519    
  9.2606      13.396      18.848      25.191      47.518      54.614      59.316      60.962      59.315      54.614    
  47.518      38.988      30.098      21.849      15.005      9.9796      6.7939      5.1076      4.3171      3.7933    
  3.3957      3.1305      2.9832      2.9364      2.9832      3.1305      3.3956      3.7933      4.3170      5.1075    
  6.7938      9.9795      15.005      21.849      30.098      38.988      66.549      74.171      78.268      78.268    
  74.171      66.549      56.430      45.102      33.879      23.886      15.895      10.238      6.7939      5.0589    
  4.2798      3.7613      3.3830      3.1464      3.0350      3.0349      3.1464      3.3830      3.7613      4.2797    
  5.0588      6.7938      10.238      15.895      23.886      33.879      45.102      56.430      87.491      94.743    
  97.278      94.743      87.491      76.507      63.212      49.194      35.939      24.607      15.895      9.9796    
  6.5520      4.9262      4.2075      3.7106      3.3667      3.1714      3.1088      3.1714      3.3667      3.7106    
  4.2074      4.9261      6.5519      9.9795      15.895      24.607      35.939      49.194      63.212      76.507    
  108.41      114.24      114.24      108.41      97.565      83.127      66.880      50.634      35.939      23.886    
  15.005      9.2607      6.1284      4.7428      4.1038      3.6457      3.3503      3.2089      3.2089      3.3503    
  3.6456      4.1038      4.7427      6.1283      9.2606      15.005      23.886      35.939      50.634      66.880    
  83.127      97.565      127.02      130.36      127.02      117.47      103.00      85.449      66.880      49.194    
  33.879      21.849      13.396      8.2337      5.6220      4.5429      3.9756      3.5725      3.3387      3.2630    
  3.3387      3.5725      3.9756      4.5428      5.6220      8.2337      13.396      21.849      33.879      49.194    
  66.880      85.449      103.00      117.47      141.03      141.03      133.90      120.64      103.00      83.127    
  63.212      45.102      30.098      18.848      11.364      7.1031      5.1345      4.3379      3.8323      3.4988    
  3.3371      3.3371      3.4988      3.8323      4.3378      5.1344      7.1030      11.364      18.848      30.097    
  45.102      63.212      83.127      103.00      120.64      133.90      148.56      144.76      133.90      117.47    
  97.565      76.507      56.430      38.988      25.191      15.375      9.2568      6.0658      4.7298      4.1159    
  3.6850      3.4321      3.3497      3.4321      3.6850      4.1159      4.7298      6.0658      9.2568      15.375    
  25.191      38.988      56.430      76.507      97.565      117.47      133.90      144.76      137.40      127.02    
  111.33      92.341      72.289      53.215      36.697      23.687      14.487      8.8015      5.8719      4.6535    
  4.0632      3.6451      3.4007      3.3213      3.4007      3.6451      4.0633      4.6536      5.8719      8.8016    
  14.487      23.687      36.697      53.215      72.289      92.341      111.33      127.02      137.40      141.03    
  127.02      114.24      97.278      78.268      59.315      42.187      28.093      17.607      10.693      6.8012    
  5.0235      4.2858      3.7969      3.4759      3.3206      3.3206      3.4759      3.7969      4.2858      5.0236    
  6.8012      10.693      17.607      28.093      42.187      59.315      78.268      97.278      114.24      127.02    
  133.90      133.90      111.33      97.278      80.355      62.589      45.823      31.446      20.267      12.494    
  7.8022      5.4575      4.4858      3.9428      3.5563      3.3326      3.2603      3.3326      3.5563      3.9428    
  4.4859      5.4575      7.8023      12.494      20.267      31.446      45.823      62.589      80.355      97.278    
  111.33      120.64      123.91      120.64      92.341      78.268      62.589      47.095      33.257      22.055    
  13.906      8.7019      5.9014      4.6700      4.0716      3.6341      3.3526      3.2180      3.2180      3.3526    
  3.6341      4.0717      4.6700      5.9015      8.7020      13.906      22.055      33.257      47.095      62.589    
  78.268      92.341      103.00      108.74      108.74      103.00      72.289      59.315      45.823      33.257    
  22.684      14.680      9.3266      6.2692      4.8332      4.1745      3.7019      3.3753      3.1900      3.1307    
  3.1900      3.3753      3.7020      4.1746      4.8333      6.2693      9.3267      14.680      22.684      33.257    
  45.823      59.315      72.289      83.127      90.340      92.871      90.340      83.127      53.215      42.187    
  31.446      22.055      14.680      9.5501      6.4780      4.9492      4.2457      3.7541      3.3960      3.1721    
  3.0668      3.0668      3.1722      3.3960      3.7542      4.2458      4.9493      6.4781      9.5502      14.680    
  22.055      31.446      42.187      53.215      63.212      70.829      74.952      74.952      70.829      63.212    
  36.697      28.093      20.267      13.906      9.3266      6.4780      4.9915      4.2820      3.7868      3.4113    
  3.1611      3.0222      2.9781      3.0222      3.1612      3.4114      3.7868      4.2820      4.9916      6.4780    
  9.3267      13.906      20.267      28.093      36.697      45.102      52.199      56.951      58.624      56.951    
  52.199      45.102      23.687      17.607      12.494      8.7019      6.2692      4.9492      4.2820      3.7978    
  3.4193      3.1550      2.9937      2.9187      2.9187      2.9938      3.1551      3.4194      3.7979      4.2821    
  4.9493      6.2692      8.7020      12.495      17.607      23.687      30.098      36.012      40.569      43.051    
  43.051      40.569      36.012      30.098      14.487      10.693      7.8023      5.9014      4.8332      4.2457    
  3.7868      3.4193      3.1531      2.9798      2.8846      2.8545      2.8846      2.9799      3.1531      3.4194    
  3.7869      4.2458      4.8333      5.9015      7.8023      10.693      14.487      18.848      23.240      27.022    
  29.585      30.492      29.584      27.022      23.240      18.848      8.8016      6.8012      5.4575      4.6700    
  4.1746      3.7541      3.4113      3.1550      2.9798      2.8735      2.8239      2.8239      2.8735      2.9799    
  3.1551      3.4114      3.7542      4.1747      4.6701      5.4575      6.8012      8.8015      11.364      14.208    
  16.926      19.067      20.247      20.247      19.067      16.926      14.208      11.364      5.8719      5.0235    
  4.4858      4.0716      3.7019      3.3960      3.1611      2.9937      2.8846      2.8239      2.8046      2.8240    
  2.8847      2.9938      3.1611      3.3960      3.7020      4.0717      4.4859      5.0236      5.8719      7.1030    
  8.6427      10.290      11.767      12.793      13.160      12.793      11.767      10.290      8.6428      7.1031    
  4.6535      4.2858      3.9428      3.6341      3.3753      3.1721      3.0222      2.9187      2.8545      2.8239    
  2.8239      2.8546      2.9188      3.0222      3.1721      3.3753      3.6341      3.9428      4.2858      4.6536    
  5.1345      5.7924      6.5893      7.4048      8.0776      8.4586      8.4586      8.0777      7.4048      6.5894    
  5.7924      5.1344      4.0633      3.7969      3.5563      3.3526      3.1900      3.0668      2.9781      2.9187    
  2.8846      2.8735      2.8846      2.9188      2.9781      3.0668      3.1900      3.3526      3.5563      3.7969    