fcc Ni                                  
   3.53000000000000     
     0.500000    0.500000    0.000000
     0.000000    0.500000    0.500000
     0.500000    0.000000    0.500000
   Ni
     1
Direct
  0.000000  0.000000  0.000000
 
   32   32   32
  152.46      148.56      137.40      120.52      100.08      78.483      57.902      40.023      25.872      15.785    
  9.4748      6.1640      4.7714      4.1464      3.7104      3.4537      3.3700      3.4537      3.7104      4.1464    
  4.7714      6.1640      9.4748      15.785      25.872      40.023      57.902      78.483      100.08      120.52    
  137.40      148.56      148.56      141.03      127.02      108.41      87.492      66.550      47.519      31.742    
  19.883      11.949      7.3885      5.2537      4.4031      3.8874      3.5448      3.3780      3.3780      3.5448    
  3.8875      4.4032      5.2538      7.3886      11.949      19.883      31.742      47.519      66.550      87.492    
  108.41      127.02      141.03      148.56      137.40      127.02      111.33      92.342      72.289      53.216    
  36.697      23.688      14.487      8.8017      5.8719      4.6533      4.0630      3.6447      3.4002      3.3208    
  3.4003      3.6448      4.0631      4.6535      5.8720      8.8018      14.487      23.688      36.697      53.216    
  72.290      92.342      111.33      127.02      137.40      141.03      120.52      108.41      92.342      74.301    
  56.294      40.012      26.625      16.695      10.186      6.5603      4.9232      4.2238      3.7449      3.4325    
  3.2819      3.2819      3.4326      3.7450      4.2239      4.9234      6.5605      10.187      16.695      26.626    
  40.012      56.294      74.301      92.342      108.41      120.52      127.02      127.02      100.08      87.492    
  72.290      56.294      41.178      28.227      18.199      11.294      7.1972      5.1985      4.3585      3.8363    
  3.4688      3.2580      3.1902      3.2581      3.4689      3.8365      4.3587      5.1987      7.1975      11.294    
  18.199      28.227      41.178      56.294      72.290      87.492      100.08      108.41      111.33      108.41    
  78.483      66.550      53.216      40.012      28.227      18.733      11.909      7.6484      5.4304      4.4625    
  3.9113      3.5033      3.2448      3.1222      3.1222      3.2449      3.5034      3.9115      4.4628      5.4306    
  7.6487      11.910      18.733      28.227      40.012      53.216      66.550      78.483      87.492      92.342    
  92.342      87.492      57.902      47.519      36.697      26.626      18.199      11.909      7.8116      5.5639    
  4.5318      3.9640      3.5310      3.2381      3.0739      3.0216      3.0739      3.2382      3.5312      3.9642    
  4.5321      5.5642      7.8118      11.910      18.199      26.626      36.697      47.519      57.902      66.550    
  72.290      74.301      72.290      66.550      40.023      31.742      23.688      16.695      11.294      7.6485    
  5.5639      4.5565      3.9911      3.5488      3.2348      3.0415      2.9513      2.9513      3.0416      3.2350    
  3.5490      3.9914      4.5568      5.5642      7.6486      11.294      16.695      23.688      31.742      40.023    
  47.519      53.216      56.294      56.294      53.216      47.519      25.872      19.884      14.487      10.187    
  7.1973      5.4304      4.5318      3.9911      3.5549      3.2335      3.0228      2.9067      2.8700      2.9068    
  3.0229      3.2337      3.5551      3.9915      4.5321      5.4306      7.1974      10.187      14.487      19.884    
  25.872      31.742      36.697      40.012      41.178      40.012      36.697      31.742      15.785      11.949    
  8.8018      6.5604      5.1985      4.4625      3.9640      3.5488      3.2335      3.0167      2.8851      2.8240    
  2.8240      2.8852      3.0168      3.2336      3.5490      3.9643      4.4628      5.1987      6.5604      8.8017    
  11.949      15.785      19.883      23.688      26.626      28.227      28.227      26.626      23.688      19.884    
  9.4749      7.3886      5.8720      4.9232      4.3586      3.9113      3.5311      3.2348      3.0228      2.8851    
  2.8091      2.7850      2.8091      2.8852      3.0229      3.2349      3.5312      3.9115      4.3588      4.9234    
  5.8720      7.3885      9.4747      11.949      14.487      16.695      18.199      18.733      18.199      16.695    
  14.487      11.949      6.1641      5.2538      4.6534      4.2238      3.8364      3.5033      3.2381      3.0415    
  2.9067      2.8240      2.7850      2.7850      2.8240      2.9068      3.0416      3.2381      3.5034      3.8365    
  4.2239      4.6535      5.2538      6.1639      7.3884      8.8016      10.187      11.294      11.910      11.910    
  11.294      10.187      8.8019      7.3886      4.7714      4.4032      4.0630      3.7450      3.4689      3.2448    
  3.0739      2.9512      2.8700      2.8240      2.8091      2.8240      2.8701      2.9513      3.0739      3.2448    
  3.4689      3.7450      4.0630      4.4032      4.7714      5.2537      5.8719      6.5603      7.1972      7.6485    
  7.8117      7.6486      7.1974      6.5605      5.8720      5.2538      4.1465      3.8875      3.6448      3.4325    
  3.2580      3.1222      3.0216      2.9512      2.9067      2.8851      2.8851      2.9068      2.9513      3.0217    
  3.1223      3.2581      3.4325      3.6447      3.8874      4.1464      4.4032      4.6534      4.9233      5.1985    
  5.4305      5.5640      5.5641      5.4306      5.1986      4.9233      4.6535      4.4032      3.7105      3.5449    
  3.4003      3.2819      3.1902      3.1222      3.0739      3.0416      3.0229      3.0167      3.0228      3.0415    
  3.0739      3.1223      3.1903      3.2820      3.4003      3.5448      3.7104      3.8874      4.0630      4.2238    
  4.3586      4.4627      4.5319      4.5567      4.5319      4.4627      4.3587      4.2239      4.0631      3.8875    
  3.4538      3.3780      3.3209      3.2819      3.2581      3.2449      3.2381      3.2349      3.2336      3.2336    
  3.2348      3.2380      3.2448      3.2580      3.2820      3.3209      3.3780      3.4537      3.5447      3.6447    
  3.7449      3.8364      3.9114      3.9641      3.9913      3.9913      3.9642      3.9114      3.8365      3.7450    
  3.6448      3.5449      3.3701      3.3780      3.4003      3.4326      3.4689      3.5034      3.5312      3.5489    
  3.5550      3.5489      3.5311      3.5033      3.4688      3.4325      3.4003      3.3780      3.3701      3.3780    
  3.4003      3.4325      3.4688      3.5033      3.5311      3.5489      3.5550      3.5489      3.5312      3.5034    
  3.4689      3.4326      3.4003      3.3780      3.4538      3.5449      3.6448      3.7450      3.8365      3.9114    
  3.9642      3.9913      3.9913      3.9641      3.9114      3.8364      3.7449      3.6447      3.5447      3.4537    
  3.3780      3.3209      3.2820      3.2580      3.2448      3.2380      3.2348      3.2336      3.2336      3.2349    
  3.2381      3.2449      3.2581      3.2819      3.3209      3.3780      3.7105      3.8875      4.0631      4.2239    
  4.3587      4.4627      4.5319      4.5567      4.5319      4.4627      4.3586      4.2238      4.0630      3.8874    
  3.7104      3.5448      3.4003      3.2820      3.1903      3.1223      3.0739      3.0415      3.0228      3.0167    
  3.0229      3.0416      3.0739      3.1222      3.1902      3.2819      3.4003      3.5449      4.1465      4.4032    
  4.6535      4.9233      5.1986      5.4306      5.5641      5.5640      5.4305      5.1985      4.9233      4.6534    
  4.4032      4.1464      3.8874      3.6447      3.4325      3.2581      3.1223      3.0217      2.9513      2.9068    
  2.8851      2.8851      2.9067      2.9512      3.0216      3.1222      3.2580      3.4325      3.6448      3.8875    
  4.7714      5.2538      5.8720      6.5605      7.1974      7.6486      7.8117      7.6485      7.1972      6.5603    
  5.8719      5.2537      4.7714      4.4032      4.0630      3.7450      3.4689      3.2448      3.0739      2.9513    
  2.8701      2.8240      2.8091      2.8240      2.8700      2.9512      3.0739      3.2448      3.4689      3.7450    
  4.0630      4.4032      6.1641      7.3886      8.8019      10.187      11.294      11.910      11.910      11.294    
  10.187      8.8016      7.3884      6.1639      5.2538      4.6535      4.2239      3.8365      3.5034      3.2381    
  3.0416      2.9068      2.8240      2.7850      2.7850      2.8240      2.9067      3.0415      3.2381      3.5033    
  3.8364      4.2238      4.6534      5.2538      9.4749      11.949      14.487      16.695      18.199      18.733    
  18.199      16.695      14.487      11.949      9.4747      7.3885      5.8720      4.9234      4.3588      3.9115    
  3.5312      3.2349      3.0229      2.8852      2.8091      2.7850      2.8091      2.8851      3.0228      3.2348    
  3.5311      3.9113      4.3586      4.9232      5.8720      7.3886      15.785      19.884      23.688      26.626    
  28.227      28.227      26.626      23.688      19.883      15.785      11.949      8.8017      6.5604      5.1987    
  4.4628      3.9643      3.5490      3.2336      3.0168      2.8852      2.8240      2.8240      2.8851      3.0167    
  3.2335      3.5488      3.9640      4.4625      5.1985      6.5604      8.8018      11.949      25.872      31.742    
  36.697      40.012      41.178      40.012      36.697      31.742      25.872      19.884      14.487      10.187    
  7.1974      5.4306      4.5321      3.9915      3.5551      3.2337      3.0229      2.9068      2.8700      2.9067    
  3.0228      3.2335      3.5549      3.9911      4.5318      5.4304      7.1973      10.187      14.487      19.884    
  40.023      47.519      53.216      56.294      56.294      53.216      47.519      40.023      31.742      23.688    
  16.695      11.294      7.6486      5.5642      4.5568      3.9914      3.5490      3.2350      3.0416      2.9513    
  2.9512      3.0415      3.2348      3.5488      3.9911      4.5565      5.5639      7.6485      11.294      16.695    
  23.688      31.742      57.902      66.550      72.290      74.301      72.290      66.550      57.902      47.519    
  36.697      26.626      18.199      11.910      7.8118      5.5642      4.5321      3.9642      3.5312      3.2382    
  3.0739      3.0216      3.0739      3.2381      3.5310      3.9640      4.5318      5.5639      7.8116      11.909    
  18.199      26.626      36.697      47.519      78.483      87.492      92.342      92.342      87.492      78.483    
  66.550      53.216      40.012      28.227      18.733      11.910      7.6487      5.4306      4.4628      3.9115    
  3.5034      3.2449      3.1222      3.1222      3.2448      3.5033      3.9113      4.4625      5.4304      7.6484    
  11.909      18.733      28.227      40.012      53.216      66.550      100.08      108.41      111.33      108.41    
  100.08      87.492      72.290      56.294      41.178      28.227      18.199      11.294      7.1975      5.1987    
  4.3587      3.8365      3.4689      3.2581      3.1902      3.2580      3.4688      3.8363      4.3585      5.1985    
  7.1972      11.294      18.199      28.227      41.178      56.294      72.290      87.492      120.52      127.02    
  127.02      120.52      108.41      92.342      74.301      56.294      40.012      26.626      16.695      10.187    
  6.5605      4.9234      4.2239      3.7450      3.4326      3.2819      3.2819      3.4325      3.7449      4.2238    
  4.9232      6.5603      10.186      16.695      26.625      40.012      56.294      74.301      92.342      108.41    
  137.40      141.03      137.40      127.02      111.33      92.342      72.290      53.216      36.697      23.688    
  14.487      8.8018      5.8720      4.6535      4.0631      3.6448      3.4003      3.3208      3.4002      3.6447    
  4.0630      4.6533      5.8719      8.8017      14.487      23.688      36.697      53.216      72.289      92.342    
  111.33      127.02      148.56      148.56      141.03      127.02      108.41      87.492      66.550      47.519    
  31.742      19.883      11.949      7.3886      5.2538      4.4032      3.8875      3.5448      3.3780      3.3780    
  3.5448      3.8874      4.4031      5.2537      7.3885      11.949      19.883      31.742      47.519      66.550    
  87.492      108.41      127.02      141.03      148.56      141.03      127.02      108.41      87.492      66.550    
  47.519      31.742      19.883      11.949      7.3885      5.2537      4.4031      3.8874      3.5448      3.3780    
  3.3780      3.5448      3.8875      4.4032      5.2538      7.3885      11.949      19.883      31.742      47.519    
  66.550      87.492      108.41      127.02      141.03      148.56      141.03      130.36      114.24      94.744    
  74.172      54.614      37.678      24.330      14.871      9.0034      5.9617      4.6922      4.0928      3.6696    
  3.4215      3.3408      3.4215      3.6697      4.0929      4.6923      5.9618      9.0035      14.871      24.330    
  37.678      54.614      74.172      94.744      114.24      130.36      141.03      144.76      127.02      114.24    
  97.279      78.268      59.316      42.188      28.093      17.608      10.693      6.8013      5.0234      4.2855    
  3.7966      3.4755      3.3202      3.3202      3.4756      3.7967      4.2857      5.0236      6.8014      10.693    
  17.608      28.093      42.188      59.316      78.268      97.279      114.24      127.02      133.91      133.91    
  108.41      94.744      78.268      60.962      44.623      30.614      19.731      12.182      7.6433      5.3889    
  4.4531      3.9155      3.5337      3.3133      3.2421      3.3133      3.5339      3.9157      4.4533      5.3892    
  7.6435      12.182      19.731      30.614      44.623      60.962      78.268      94.744      108.41      117.47    
  120.64      117.47      87.492      74.172      59.316      44.623      31.500      20.891      13.202      8.3272    
  5.7321      4.5971      4.0170      3.5892      3.3154      3.1849      3.1849      3.3155      3.5893      4.0172    
  4.5973      5.7324      8.3274      13.203      20.891      31.500      44.623      59.316      74.172      87.492    
  97.566      103.00      103.00      97.566      66.550      54.614      42.188      30.614      20.891      13.566    
  8.7106      5.9787      4.7108      4.0937      3.6357      3.3219      3.1447      3.0881      3.1447      3.3220    
  3.6359      4.0940      4.7111      5.9789      8.7108      13.566      20.891      30.614      42.188      54.614    
  66.550      76.508      83.128      85.450      83.128      76.508      47.519      37.678      28.094      19.731    
  13.202      8.7106      6.0685      4.7752      4.1413      3.6689      3.3287      3.1175      3.0184      3.0184    
  3.1176      3.3289      3.6692      4.1416      4.7755      6.0688      8.7108      13.203      19.731      28.094    
  37.678      47.519      56.431      63.213      66.881      66.881      63.213      56.431      31.742      24.330    
  17.608      12.182      8.3272      5.9787      4.7752      4.1574      3.6861      3.3335      3.1004      2.9715    
  2.9307      2.9715      3.1006      3.3337      3.6864      4.1577      4.7755      5.9789      8.3274      12.182    
  17.608      24.330      31.742      38.988      45.103      49.195      50.635      49.195      45.103      38.988    
  19.884      14.871      10.693      7.6433      5.7321      4.7109      4.1413      3.6861      3.3353      3.0922    
  2.9444      2.8757      2.8757      2.9444      3.0923      3.3355      3.6864      4.1416      4.7111      5.7323    
  7.6434      10.693      14.871      19.883      25.192      30.098      33.880      35.940      35.940      33.880    
  30.098      25.192      11.949      9.0035      6.8014      5.3890      4.5971      4.0937      3.6689      3.3335    
  3.0922      2.9355      2.8492      2.8220      2.8493      2.9355      3.0923      3.3337      3.6692      4.0940    
  4.5974      5.3891      6.8014      9.0034      11.949      15.376      18.849      21.850      23.886      24.608    
  23.886      21.850      18.849      15.376      7.3886      5.9618      5.0235      4.4532      4.0170      3.6358    
  3.3287      3.1005      2.9444      2.8492      2.8047      2.8047      2.8493      2.9444      3.1005      3.3288    
  3.6359      4.0172      4.4534      5.0236      5.9618      7.3884      9.2569      11.364      13.396      15.006    
  15.896      15.896      15.006      13.396      11.364      9.2571      5.2538      4.6923      4.2856      3.9156    
  3.5892      3.3219      3.1175      2.9715      2.8757      2.8219      2.8047      2.8220      2.8758      2.9716    
  3.1175      3.3219      3.5893      3.9157      4.2857      4.6923      5.2538      6.0658      7.1031      8.2338    
  9.2608      9.9799      10.238      9.9799      9.2610      8.2340      7.1033      6.0659      4.4032      4.0929    
  3.7967      3.5338      3.3155      3.1447      3.0184      2.9306      2.8757      2.8493      2.8493      2.8757    
  2.9307      3.0185      3.1448      3.3155      3.5338      3.7967      4.0929      4.4032      4.7297      5.1343    
  5.6219      6.1283      6.5520      6.7941      6.7941      6.5522      6.1285      5.6221      5.1344      4.7297    
  3.8875      3.6696      3.4756      3.3133      3.1849      3.0881      3.0184      2.9715      2.9444      2.9355    
  2.9444      2.9715      3.0185      3.0882      3.1850      3.3133      3.4756      3.6696      3.8874      4.1156    
  4.3376      4.5427      4.7427      4.9261      5.0588      5.1076      5.0589      4.9262      4.7427      4.5428    
  4.3377      4.1156      3.5449      3.4216      3.3203      3.2421      3.1849      3.1447      3.1175      3.1005    
  3.0922      3.0922      3.1005      3.1175      3.1447      3.1850      3.2422      3.3203      3.4215      3.5448    
  3.6846      3.8319      3.9753      4.1036      4.2073      4.2797      4.3170      4.3170      4.2797      4.2073    
  4.1037      3.9754      3.8320      3.6847      3.3780      3.3409      3.3203      3.3134      3.3155      3.3220    
  3.3288      3.3337      3.3354      3.3336      3.3287      3.3219      3.3154      3.3133      3.3203      3.3409    
  3.3780      3.4316      3.4984      3.5721      3.6453      3.7104      3.7611      3.7932      3.8042      3.7932    
  3.7612      3.7105      3.6454      3.5723      3.4985      3.4317      3.3780      3.4216      3.4756      3.5339    
  3.5893      3.6359      3.6691      3.6863      3.6863      3.6690      3.6358      3.5892      3.5337      3.4755    
  3.4215      3.3780      3.3493      3.3367      3.3383      3.3499      3.3663      3.3827      3.3955      3.4023    
  3.4023      3.3955      3.3828      3.3665      3.3500      3.3383      3.3367      3.3493      3.5449      3.6697    
  3.7968      3.9157      4.0171      4.0939      4.1415      4.1576      4.1415      4.0939      4.0171      3.9156    
  3.7966      3.6695      3.5447      3.4316      3.3367      3.2627      3.2085      3.1710      3.1460      3.1302    
  3.1213      3.1185      3.1214      3.1303      3.1461      3.1710      3.2085      3.2626      3.3367      3.4317    
  3.8875      4.0929      4.2857      4.4533      4.5973      4.7110      4.7754      4.7753      4.7110      4.5972    
  4.4532      4.2856      4.0928      3.8874      3.6846      3.4984      3.3383      3.2086      3.1085      3.0346    
  2.9828      2.9498      2.9337      2.9337      2.9498      2.9828      3.0346      3.1084      3.2085      3.3383    
  3.4985      3.6847      4.4032      4.6923      5.0236      5.3891      5.7323      5.9788      6.0686      5.9788    
  5.7322      5.3890      5.0235      4.6923      4.4032      4.1156      3.8319      3.5722      3.3499      3.1710    
  3.0346      2.9361      2.8701      2.8321      2.8198      2.8321      2.8700      2.9360      3.0345      3.1710    
  3.3500      3.5722      3.8320      4.1156      5.2538      5.9619      6.8014      7.6435      8.3274      8.7108    
  8.7107      8.3272      7.6433      6.8013      5.9617      5.2537      4.7297      4.3377      3.9754      3.6454    
  3.3664      3.1461      2.9829      2.8701      2.8001      2.7667      2.7667      2.8000      2.8700      2.9828    
  3.1461      3.3664      3.6454      3.9754      4.3376      4.7297      7.3886      9.0036      10.693      12.182    
  13.203      13.566      13.203      12.182      10.693      9.0033      7.3884      6.0658      5.1344      4.5428    
  4.1037      3.7105      3.3828      3.1302      2.9498      2.8322      2.7667      2.7458      2.7666      2.8321    
  2.9498      3.1302      3.3828      3.7104      4.1036      4.5427      5.1344      6.0659      11.949      14.871    
  17.608      19.731      20.891      20.891      19.731      17.608      14.871      11.949      9.2569      7.1031    
  5.6220      4.7428      4.2074      3.7613      3.3956      3.1214      2.9337      2.8198      2.7667      2.7666    
  2.8197      2.9337      3.1213      3.3954      3.7611      4.2072      4.7426      5.6220      7.1032      9.2571    
  19.884      24.330      28.094      30.614      31.500      30.614      28.094      24.330      19.883      15.376    
  11.364      8.2339      6.1285      4.9262      4.2798      3.7933      3.4024      3.1185      2.9337      2.8321    
  2.8000      2.8321      2.9337      3.1184      3.4022      3.7931      4.2796      4.9261      6.1284      8.2339    
  11.364      15.376      31.742      37.678      42.188      44.623      44.623      42.188      37.678      31.742    
  25.192      18.849      13.396      9.2609      6.5522      5.0590      4.3171      3.8043      3.4024      3.1214    
  2.9499      2.8700      2.8700      2.9498      3.1213      3.4022      3.8040      4.3168      5.0588      6.5520    
  9.2609      13.396      18.849      25.192      47.519      54.614      59.316      60.962      59.316      54.614    
  47.519      38.988      30.098      21.850      15.006      9.9799      6.7942      5.1077      4.3171      3.7933    
  3.3956      3.1303      2.9828      2.9360      2.9828      3.1302      3.3954      3.7931      4.3168      5.1075    
  6.7940      9.9798      15.005      21.850      30.098      38.988      66.550      74.172      78.269      78.269    
  74.172      66.550      56.431      45.103      33.880      23.886      15.896      10.238      6.7942      5.0590    
  4.2798      3.7612      3.3829      3.1461      3.0346      3.0345      3.1460      3.3827      3.7611      4.2796    
  5.0588      6.7940      10.238      15.895      23.886      33.880      45.103      56.431      87.492      94.744    
  97.279      94.744      87.492      76.508      63.213      49.195      35.939      24.608      15.896      9.9800    
  6.5522      4.9263      4.2074      3.7105      3.3665      3.1710      3.1084      3.1710      3.3664      3.7104    
  4.2072      4.9260      6.5520      9.9798      15.895      24.608      35.939      49.195      63.213      76.508    
  108.41      114.24      114.24      108.41      97.566      83.128      66.881      50.635      35.939      23.886    
  15.006      9.2610      6.1285      4.7428      4.1037      3.6454      3.3500      3.2085      3.2085      3.3499    
  3.6453      4.1036      4.7426      6.1283      9.2608      15.005      23.886      35.939      50.635      66.881    
  83.128      97.566      127.02      130.36      127.02      117.47      103.00      85.450      66.881      49.195    
  33.880      21.850      13.396      8.2339      5.6221      4.5428      3.9754      3.5722      3.3383      3.2626    
  3.3383      3.5722      3.9753      4.5426      5.6219      8.2338      13.396      21.849      33.880      49.195    
  66.881      85.450      103.00      117.47      141.03      141.03      133.91      120.64      103.00      83.128    
  63.213      45.103      30.098      18.849      11.364      7.1032      5.1344      4.3376      3.8320      3.4984    
  3.3367      3.3367      3.4984      3.8319      4.3376      5.1343      7.1031      11.364      18.849      30.098    
  45.103      63.213      83.128      103.00      120.64      133.91      148.56      144.76      133.91      117.47    
  97.566      76.508      56.431      38.988      25.192      15.376      9.2570      6.0658      4.7297      4.1156    
  3.6847      3.4316      3.3493      3.4316      3.6847      4.1156      4.7297      6.0658      9.2570      15.376    
  25.192      38.988      56.431      76.508      97.566      117.47      133.91      144.76      137.40      127.02    
  111.33      92.342      72.290      53.216      36.697      23.688      14.487      8.8017      5.8719      4.6534    
  4.0630      3.6447      3.4002      3.3209      3.4003      3.6448      4.0631      4.6535      5.8720      8.8018    
  14.487      23.688      36.697      53.216      72.289      92.342      111.33      127.02      137.40      141.03    
  127.02      114.24      97.279      78.268      59.316      42.188      28.093      17.608      10.693      6.8013    
  5.0234      4.2855      3.7966      3.4755      3.3202      3.3202      3.4756      3.7967      4.2857      5.0236    
  6.8014      10.693      17.608      28.093      42.188      59.316      78.268      97.279      114.24      127.02    
  133.91      133.91      111.33      97.279      80.356      62.590      45.823      31.447      20.268      12.495    
  7.8024      5.4575      4.4856      3.9425      3.5560      3.3322      3.2599      3.3323      3.5561      3.9427    
  4.4859      5.4577      7.8026      12.495      20.268      31.447      45.823      62.590      80.356      97.279    
  111.33      120.64      123.91      120.64      92.342      78.268      62.590      47.096      33.258      22.055    
  13.906      8.7022      5.9015      4.6699      4.0714      3.6338      3.3523      3.2176      3.2177      3.3524    
  3.6340      4.0717      4.6702      5.9018      8.7024      13.906      22.055      33.258      47.095      62.590    
  78.269      92.342      103.00      108.74      108.74      103.00      72.290      59.316      45.824      33.258    
  22.685      14.681      9.3269      6.2694      4.8332      4.1744      3.7018      3.3751      3.1897      3.1303    
  3.1897      3.3752      3.7020      4.1747      4.8335      6.2697      9.3271      14.681      22.684      33.258    
  45.823      59.316      72.290      83.128      90.341      92.872      90.341      83.128      53.216      42.188    
  31.447      22.055      14.681      9.5505      6.4782      4.9493      4.2457      3.7540      3.3958      3.1719    
  3.0664      3.0665      3.1720      3.3960      3.7543      4.2460      4.9496      6.4785      9.5507      14.681    
  22.055      31.447      42.188      53.216      63.213      70.830      74.953      74.953      70.830      63.213    
  36.697      28.094      20.268      13.906      9.3269      6.4782      4.9916      4.2819      3.7867      3.4112    
  3.1609      3.0219      2.9778      3.0219      3.1611      3.4114      3.7870      4.2823      4.9919      6.4784    
  9.3271      13.906      20.268      28.094      36.697      45.103      52.200      56.952      58.625      56.952    
  52.200      45.103      23.688      17.608      12.495      8.7022      6.2694      4.9493      4.2819      3.7978    
  3.4192      3.1548      2.9935      2.9184      2.9184      2.9936      3.1550      3.4195      3.7981      4.2823    
  4.9496      6.2696      8.7023      12.495      17.608      23.688      30.098      36.013      40.570      43.052    
  43.052      40.570      36.013      30.098      14.487      10.693      7.8025      5.9016      4.8333      4.2457    
  3.7867      3.4192      3.1529      2.9796      2.8843      2.8542      2.8844      2.9797      3.1530      3.4195    
  3.7870      4.2460      4.8335      5.9017      7.8025      10.693      14.487      18.849      23.241      27.022    
  29.585      30.493      29.585      27.022      23.241      18.849      8.8018      6.8014      5.4576      4.6699    
  4.1745      3.7540      3.4112      3.1549      2.9796      2.8732      2.8236      2.8236      2.8733      2.9797    
  3.1550      3.4114      3.7543      4.1747      4.6702      5.4577      6.8013      8.8017      11.364      14.208    
  16.926      19.067      20.248      20.248      19.067      16.926      14.209      11.364      5.8720      5.0235    
  4.4857      4.0715      3.7018      3.3959      3.1609      2.9935      2.8843      2.8236      2.8042      2.8237    
  2.8844      2.9936      3.1610      3.3959      3.7020      4.0717      4.4859      5.0236      5.8719      7.1031    
  8.6428      10.290      11.767      12.793      13.161      12.793      11.767      10.290      8.6431      7.1032    
  4.6534      4.2856      3.9426      3.6339      3.3751      3.1719      3.0219      2.9184      2.8542      2.8236    
  2.8237      2.8543      2.9185      3.0220      3.1720      3.3751      3.6339      3.9427      4.2857      4.6535    
  5.1344      5.7923      6.5893      7.4049      8.0778      8.4588      8.4589      8.0779      7.4050      6.5895    
  5.7925      5.1344      4.0630      3.7967      3.5560      3.3523      3.1897      3.0664      2.9778      2.9184    
  2.8843      2.8732      2.8844      2.9185      2.9779      3.0665      3.1898      3.3523      3.5560      3.7966    