fcc Ni                                  
   3.53000000000000     
     0.500000    0.500000    0.000000
     0.000000    0.500000    0.500000
     0.500000    0.000000    0.500000
   Ni
     1
Direct
  0.000000  0.000000  0.000000
 
   32   32   32
  152.29      148.39      137.25      120.38      99.969      78.388      57.823      39.960      25.826      15.755    
  9.4578      6.1564      4.7694      4.1483      3.7156      3.4610      3.3781      3.4610      3.7156      4.1483    
  4.7694      6.1564      9.4578      15.755      25.826      39.960      57.823      78.388      99.969      120.38    
  137.25      148.39      148.39      140.87      126.88      108.29      87.389      66.464      47.449      31.688    
  19.846      11.927      7.3772      5.2496      4.4033      3.8912      3.5513      3.3859      3.3859      3.5513    
  3.8912      4.4033      5.2495      7.3771      11.927      19.846      31.688      47.449      66.464      87.389    
  108.29      126.88      140.87      148.39      137.25      126.88      111.21      92.235      72.199      53.141    
  36.638      23.645      14.460      8.7866      5.8654      4.6521      4.0655      3.6504      3.4080      3.3293    
  3.4080      3.6504      4.0655      4.6521      5.8654      8.7865      14.459      23.645      36.638      53.141    
  72.199      92.235      111.20      126.88      137.25      140.87      120.38      108.29      92.235      74.209    
  56.216      39.950      26.578      16.663      10.168      6.5517      4.9206      4.2252      3.7498      3.4399    
  3.2907      3.2907      3.4399      3.7498      4.2252      4.9206      6.5516      10.168      16.663      26.578    
  39.949      56.216      74.208      92.234      108.29      120.38      126.88      126.88      99.969      87.389    
  72.199      56.216      41.114      28.177      18.165      11.273      7.1867      5.1948      4.3592      3.8406    
  3.4760      3.2670      3.1998      3.2670      3.4759      3.8406      4.3592      5.1948      7.1867      11.273    
  18.164      28.177      41.114      56.216      72.198      87.388      99.968      108.29      111.20      108.29    
  78.387      66.463      53.141      39.949      28.177      18.697      11.887      7.6367      5.4259      4.4626    
  3.9150      3.5101      3.2539      3.1324      3.1324      3.2538      3.5101      3.9150      4.4626      5.4259    
  7.6366      11.887      18.697      28.177      39.949      53.140      66.463      78.387      87.388      92.234    
  92.234      87.388      57.822      47.448      36.638      26.578      18.165      11.887      7.7994      5.5590    
  4.5315      3.9674      3.5377      3.2471      3.0845      3.0327      3.0844      3.2471      3.5377      3.9674    
  4.5315      5.5589      7.7993      11.887      18.164      26.578      36.637      47.448      57.822      66.463    
  72.198      74.208      72.198      66.463      39.960      31.688      23.644      16.663      11.273      7.6367    
  5.5590      4.5562      3.9944      3.5553      3.2439      3.0523      2.9629      2.9629      3.0523      3.2439    
  3.5553      3.9944      4.5561      5.5589      7.6365      11.273      16.663      23.644      31.687      39.959    
  47.448      53.140      56.215      56.216      53.140      47.448      25.826      19.846      14.459      10.168    
  7.1867      5.4259      4.5315      3.9944      3.5614      3.2426      3.0338      2.9187      2.8824      2.9187    
  3.0337      3.2426      3.5614      3.9944      4.5315      5.4258      7.1866      10.168      14.459      19.845    
  25.825      31.687      36.637      39.949      41.113      39.949      36.637      31.688      15.755      11.926    
  8.7865      6.5516      5.1948      4.4626      3.9674      3.5553      3.2426      3.0276      2.8973      2.8367    
  2.8367      2.8973      3.0276      3.2426      3.5553      3.9674      4.4626      5.1948      6.5515      8.7863    
  11.926      15.754      19.845      23.644      26.578      28.177      28.177      26.578      23.644      19.846    
  9.4577      7.3770      5.8654      4.9206      4.3592      3.9150      3.5377      3.2439      3.0338      2.8973    
  2.8219      2.7980      2.8219      2.8973      3.0337      3.2439      3.5377      3.9150      4.3592      4.9206    
  5.8654      7.3770      9.4575      11.926      14.459      16.663      18.164      18.697      18.164      16.663    
  14.459      11.926      6.1563      5.2495      4.6521      4.2252      3.8406      3.5101      3.2471      3.0524    
  2.9188      2.8367      2.7980      2.7980      2.8367      2.9187      3.0523      3.2471      3.5101      3.8406    
  4.2253      4.6521      5.2495      6.1563      7.3770      8.7863      10.168      11.273      11.887      11.887    
  11.273      10.168      8.7864      7.3770      4.7694      4.4033      4.0655      3.7498      3.4760      3.2539    
  3.0845      2.9629      2.8824      2.8367      2.8219      2.8367      2.8824      2.9629      3.0844      3.2538    
  3.4759      3.7498      4.0655      4.4033      4.7694      5.2495      5.8654      6.5515      7.1865      7.6365    
  7.7992      7.6366      7.1866      6.5516      5.8654      5.2495      4.1483      3.8912      3.6504      3.4399    
  3.2670      3.1324      3.0327      2.9629      2.9188      2.8973      2.8973      2.9187      2.9629      3.0327    
  3.1324      3.2670      3.4399      3.6504      3.8911      4.1483      4.4033      4.6521      4.9207      5.1948    
  5.4258      5.5589      5.5589      5.4258      5.1948      4.9206      4.6521      4.4033      3.7156      3.5513    
  3.4080      3.2907      3.1998      3.1324      3.0845      3.0523      3.0338      3.0276      3.0337      3.0523    
  3.0845      3.1324      3.1998      3.2907      3.4080      3.5512      3.7155      3.8911      4.0655      4.2253    
  4.3592      4.4626      4.5315      4.5561      4.5315      4.4626      4.3592      4.2252      4.0655      3.8912    
  3.4610      3.3859      3.3293      3.2907      3.2670      3.2539      3.2471      3.2439      3.2426      3.2426    
  3.2439      3.2471      3.2538      3.2670      3.2907      3.3293      3.3860      3.4610      3.5512      3.6504    
  3.7498      3.8406      3.9150      3.9675      3.9944      3.9944      3.9674      3.9150      3.8406      3.7498    
  3.6504      3.5513      3.3780      3.3859      3.4080      3.4399      3.4760      3.5101      3.5377      3.5553    
  3.5614      3.5553      3.5377      3.5101      3.4759      3.4399      3.4080      3.3860      3.3781      3.3860    
  3.4080      3.4399      3.4759      3.5101      3.5377      3.5553      3.5614      3.5553      3.5377      3.5101    
  3.4760      3.4399      3.4080      3.3859      3.4610      3.5513      3.6504      3.7498      3.8406      3.9150    
  3.9674      3.9944      3.9944      3.9675      3.9150      3.8406      3.7498      3.6504      3.5512      3.4610    
  3.3860      3.3293      3.2907      3.2670      3.2538      3.2471      3.2439      3.2426      3.2426      3.2439    
  3.2471      3.2539      3.2670      3.2907      3.3293      3.3859      3.7156      3.8912      4.0655      4.2252    
  4.3592      4.4626      4.5315      4.5561      4.5315      4.4626      4.3592      4.2253      4.0655      3.8911    
  3.7155      3.5512      3.4080      3.2907      3.1998      3.1324      3.0845      3.0523      3.0337      3.0276    
  3.0338      3.0523      3.0845      3.1324      3.1998      3.2907      3.4080      3.5513      4.1483      4.4033    
  4.6521      4.9206      5.1948      5.4258      5.5589      5.5589      5.4258      5.1948      4.9207      4.6521    
  4.4033      4.1483      3.8911      3.6504      3.4399      3.2670      3.1324      3.0327      2.9629      2.9187    
  2.8973      2.8973      2.9187      2.9629      3.0327      3.1324      3.2670      3.4399      3.6504      3.8912    
  4.7694      5.2495      5.8654      6.5516      7.1866      7.6366      7.7992      7.6365      7.1865      6.5515    
  5.8654      5.2495      4.7694      4.4033      4.0655      3.7498      3.4759      3.2538      3.0844      2.9629    
  2.8824      2.8367      2.8219      2.8367      2.8824      2.9629      3.0845      3.2539      3.4760      3.7498    
  4.0655      4.4033      6.1563      7.3770      8.7864      10.168      11.273      11.887      11.887      11.273    
  10.168      8.7863      7.3770      6.1563      5.2495      4.6521      4.2253      3.8406      3.5101      3.2471    
  3.0523      2.9187      2.8367      2.7980      2.7980      2.8367      2.9187      3.0524      3.2471      3.5101    
  3.8406      4.2252      4.6521      5.2495      9.4577      11.926      14.459      16.663      18.164      18.697    
  18.164      16.663      14.459      11.926      9.4575      7.3770      5.8654      4.9206      4.3592      3.9150    
  3.5377      3.2439      3.0337      2.8973      2.8219      2.7980      2.8219      2.8973      3.0338      3.2439    
  3.5377      3.9150      4.3592      4.9206      5.8654      7.3770      15.755      19.846      23.644      26.578    
  28.177      28.177      26.578      23.644      19.845      15.754      11.926      8.7863      6.5515      5.1948    
  4.4626      3.9674      3.5553      3.2426      3.0276      2.8973      2.8367      2.8367      2.8973      3.0276    
  3.2426      3.5553      3.9674      4.4626      5.1948      6.5516      8.7864      11.926      25.825      31.688    
  36.637      39.949      41.113      39.949      36.637      31.687      25.825      19.845      14.459      10.168    
  7.1866      5.4258      4.5315      3.9944      3.5614      3.2426      3.0337      2.9187      2.8824      2.9187    
  3.0338      3.2426      3.5614      3.9944      4.5315      5.4259      7.1867      10.168      14.459      19.846    
  39.960      47.448      53.140      56.216      56.215      53.140      47.448      39.959      31.687      23.644    
  16.663      11.273      7.6365      5.5589      4.5561      3.9944      3.5553      3.2439      3.0523      2.9629    
  2.9629      3.0523      3.2439      3.5553      3.9944      4.5561      5.5590      7.6366      11.273      16.663    
  23.644      31.688      57.822      66.463      72.198      74.208      72.198      66.463      57.822      47.448    
  36.637      26.578      18.164      11.887      7.7993      5.5589      4.5315      3.9674      3.5377      3.2471    
  3.0844      3.0327      3.0845      3.2471      3.5377      3.9674      4.5315      5.5590      7.7994      11.887    
  18.164      26.578      36.638      47.448      78.387      87.388      92.234      92.234      87.388      78.387    
  66.463      53.140      39.949      28.177      18.697      11.887      7.6366      5.4259      4.4626      3.9150    
  3.5101      3.2538      3.1324      3.1324      3.2538      3.5101      3.9150      4.4626      5.4259      7.6367    
  11.887      18.697      28.177      39.949      53.141      66.463      99.969      108.29      111.20      108.29    
  99.968      87.388      72.198      56.216      41.114      28.177      18.164      11.273      7.1867      5.1948    
  4.3592      3.8406      3.4759      3.2670      3.1998      3.2670      3.4760      3.8406      4.3592      5.1948    
  7.1867      11.273      18.165      28.177      41.114      56.216      72.199      87.389      120.38      126.88    
  126.88      120.38      108.29      92.234      74.208      56.216      39.949      26.578      16.663      10.168    
  6.5516      4.9206      4.2252      3.7498      3.4399      3.2907      3.2907      3.4399      3.7498      4.2252    
  4.9206      6.5517      10.168      16.663      26.578      39.949      56.216      74.209      92.235      108.29    
  137.25      140.87      137.25      126.88      111.20      92.235      72.199      53.141      36.638      23.645    
  14.459      8.7865      5.8654      4.6521      4.0655      3.6504      3.4080      3.3293      3.4080      3.6504    
  4.0655      4.6521      5.8654      8.7866      14.460      23.645      36.638      53.141      72.199      92.235    
  111.21      126.88      148.39      148.39      140.87      126.88      108.29      87.389      66.464      47.449    
  31.688      19.846      11.927      7.3771      5.2496      4.4033      3.8912      3.5513      3.3859      3.3859    
  3.5513      3.8912      4.4033      5.2496      7.3772      11.927      19.846      31.688      47.449      66.464    
  87.389      108.29      126.88      140.87      148.39      140.87      126.88      108.29      87.389      66.464    
  47.449      31.688      19.846      11.927      7.3772      5.2496      4.4033      3.8912      3.5513      3.3859    
  3.3859      3.5513      3.8912      4.4033      5.2495      7.3771      11.927      19.846      31.688      47.449    
  66.464      87.389      108.29      126.88      140.87      148.39      140.87      130.22      114.10      94.622    
  74.065      54.524      37.606      24.278      14.838      8.9856      5.9540      4.6903      4.0949      3.6750    
  3.4291      3.3491      3.4290      3.6750      4.0949      4.6903      5.9540      8.9855      14.838      24.278    
  37.606      54.524      74.064      94.621      114.10      130.22      140.87      144.60      126.88      114.10    
  97.150      78.149      59.211      42.100      28.028      17.564      10.668      6.7894      5.0193      4.2860    
  3.8009      3.4826      3.3287      3.3287      3.4826      3.8009      4.2860      5.0193      6.7893      10.668    
  17.564      28.027      42.100      59.210      78.148      97.149      114.10      126.88      133.76      133.76    
  108.29      94.622      78.149      60.851      44.526      30.538      19.678      12.149      7.6270      5.3825    
  4.4522      3.9187      3.5402      3.3218      3.2513      3.3218      3.5402      3.9187      4.4522      5.3825    
  7.6270      12.149      19.678      30.537      44.526      60.850      78.148      94.621      108.29      117.35    
  120.52      117.35      87.388      74.064      59.210      44.526      31.420      20.832      13.165      8.3072    
  5.7235      4.5949      4.0192      3.5950      3.3238      3.1946      3.1946      3.3238      3.5950      4.0191    
  4.5949      5.7235      8.3072      13.165      20.832      31.420      44.526      59.210      74.064      87.388    
  97.468      102.90      102.90      97.468      66.463      54.523      42.100      30.537      20.832      13.526    
  8.6885      5.9685      4.7078      4.0952      3.6411      3.3301      3.1547      3.0987      3.1547      3.3301    
  3.6410      4.0952      4.7077      5.9685      8.6884      13.526      20.832      30.537      42.099      54.523    
  66.463      76.429      83.056      85.381      83.057      76.430      47.448      37.606      28.027      19.678    
  13.165      8.6885      6.0578      4.7716      4.1423      3.6739      3.3368      3.1277      3.0296      3.0296    
  3.1277      3.3368      3.6739      4.1423      4.7715      6.0577      8.6883      13.165      19.677      28.027    
  37.605      47.448      56.367      63.158      66.832      66.832      63.159      56.368      31.688      24.277    
  17.564      12.149      8.3072      5.9685      4.7716      4.1583      3.6909      3.3416      3.1108      2.9831    
  2.9428      2.9831      3.1108      3.3416      3.6909      4.1583      4.7715      5.9684      8.3070      12.149    
  17.563      24.277      31.687      38.938      45.060      49.159      50.601      49.159      45.060      38.938    
  19.846      14.838      10.668      7.6269      5.7235      4.7077      4.1423      3.6909      3.3432      3.1025    
  2.9562      2.8883      2.8883      2.9562      3.1025      3.3432      3.6909      4.1423      4.7077      5.7234    
  7.6268      10.668      14.837      19.845      25.154      30.065      33.852      35.915      35.915      33.852    
  30.065      25.154      11.926      8.9854      6.7893      5.3825      4.5949      4.0952      3.6739      3.3416    
  3.1025      2.9474      2.8621      2.8351      2.8621      2.9474      3.1025      3.3416      3.6739      4.0952    
  4.5949      5.3825      6.7892      8.9853      11.926      15.350      18.824      21.828      23.868      24.591    
  23.868      21.828      18.825      15.351      7.3770      5.9540      5.0193      4.4522      4.0192      3.6411    
  3.3368      3.1108      2.9562      2.8621      2.8180      2.8180      2.8621      2.9562      3.1107      3.3368    
  3.6410      4.0192      4.4522      5.0193      5.9539      7.3770      9.2426      11.348      13.381      14.992    
  15.883      15.883      14.992      13.381      11.348      9.2428      5.2495      4.6903      4.2860      3.9187    
  3.5950      3.3301      3.1277      2.9831      2.8883      2.8351      2.8180      2.8351      2.8883      2.9831    
  3.1277      3.3301      3.5950      3.9187      4.2861      4.6903      5.2495      6.0595      7.0953      8.2253    
  9.2525      9.9720      10.231      9.9720      9.2526      8.2254      7.0953      6.0595      4.4033      4.0949    
  3.8009      3.5402      3.3238      3.1547      3.0296      2.9428      2.8883      2.8621      2.8621      2.8883    
  2.9428      3.0297      3.1547      3.3238      3.5401      3.8008      4.0949      4.4033      4.7284      5.1319    
  5.6187      6.1247      6.5483      6.7904      6.7904      6.5484      6.1247      5.6187      5.1319      4.7284    
  3.8912      3.6750      3.4826      3.3218      3.1946      3.0987      3.0296      2.9831      2.9562      2.9474    
  2.9562      2.9831      3.0297      3.0987      3.1946      3.3218      3.4825      3.6749      3.8911      4.1179    
  4.3388      4.5432      4.7427      4.9259      5.0586      5.1073      5.0586      4.9260      4.7427      4.5432    
  4.3388      4.1179      3.5513      3.4291      3.3287      3.2513      3.1946      3.1547      3.1277      3.1108    
  3.1025      3.1025      3.1107      3.1277      3.1547      3.1946      3.2513      3.3287      3.4290      3.5512    
  3.6900      3.8364      3.9790      4.1068      4.2102      4.2824      4.3196      4.3196      4.2824      4.2101    
  4.1068      3.9790      3.8364      3.6901      3.3859      3.3491      3.3287      3.3218      3.3238      3.3301    
  3.3368      3.3416      3.3433      3.3416      3.3368      3.3301      3.3238      3.3218      3.3287      3.3492    
  3.3860      3.4391      3.5053      3.5786      3.6513      3.7161      3.7667      3.7987      3.8096      3.7987    
  3.7667      3.7161      3.6514      3.5786      3.5054      3.4391      3.3859      3.4290      3.4826      3.5402    
  3.5950      3.6410      3.6739      3.6909      3.6909      3.6739      3.6411      3.5950      3.5401      3.4825    
  3.4290      3.3860      3.3575      3.3450      3.3466      3.3581      3.3745      3.3908      3.4035      3.4103    
  3.4103      3.4035      3.3908      3.3745      3.3581      3.3466      3.3450      3.3575      3.5513      3.6750    
  3.8009      3.9187      4.0191      4.0952      4.1423      4.1583      4.1424      4.0952      4.0192      3.9187    
  3.8008      3.6749      3.5512      3.4391      3.3450      3.2716      3.2179      3.1807      3.1559      3.1401    
  3.1313      3.1285      3.1314      3.1402      3.1559      3.1807      3.2178      3.2715      3.3450      3.4391    
  3.8912      4.0949      4.2860      4.4522      4.5949      4.7077      4.7715      4.7715      4.7078      4.5949    
  4.4522      4.2861      4.0949      3.8911      3.6900      3.5053      3.3466      3.2179      3.1186      3.0454    
  2.9939      2.9612      2.9451      2.9452      2.9612      2.9939      3.0453      3.1186      3.2179      3.3466    
  3.5054      3.6901      4.4033      4.6903      5.0193      5.3825      5.7235      5.9685      6.0577      5.9684    
  5.7234      5.3825      5.0193      4.6903      4.4033      4.1179      3.8364      3.5786      3.3581      3.1807    
  3.0454      2.9476      2.8820      2.8444      2.8321      2.8444      2.8820      2.9476      3.0453      3.1807    
  3.3581      3.5786      3.8364      4.1179      5.2495      5.9539      6.7893      7.6269      8.3071      8.6883    
  8.6883      8.3070      7.6268      6.7892      5.9540      5.2495      4.7284      4.3388      3.9790      3.6513    
  3.3745      3.1559      2.9939      2.8820      2.8126      2.7794      2.7794      2.8126      2.8820      2.9939    
  3.1559      3.3745      3.6514      3.9790      4.3388      4.7283      7.3770      8.9854      10.668      12.149    
  13.165      13.526      13.165      12.149      10.668      8.9853      7.3770      6.0595      5.1319      4.5432    
  4.1068      3.7161      3.3908      3.1401      2.9611      2.8444      2.7794      2.7587      2.7794      2.8444    
  2.9612      3.1402      3.3908      3.7161      4.1067      4.5431      5.1319      6.0595      11.926      14.837    
  17.563      19.677      20.832      20.832      19.677      17.563      14.837      11.926      9.2426      7.0953    
  5.6187      4.7427      4.2101      3.7667      3.4035      3.1313      2.9451      2.8321      2.7794      2.7794    
  2.8321      2.9452      3.1313      3.4035      3.7667      4.2101      4.7427      5.6187      7.0953      9.2428    
  19.846      24.277      28.027      30.537      31.420      30.537      28.027      24.277      19.845      15.350    
  11.348      8.2253      6.1247      4.9259      4.2824      3.7987      3.4103      3.1285      2.9451      2.8444    
  2.8125      2.8444      2.9452      3.1285      3.4103      3.7986      4.2824      4.9259      6.1248      8.2254    
  11.349      15.351      31.688      37.605      42.100      44.526      44.525      42.099      37.605      31.687    
  25.154      18.824      13.381      9.2525      6.5483      5.0586      4.3196      3.8096      3.4103      3.1313    
  2.9612      2.8820      2.8820      2.9612      3.1313      3.4103      3.8096      4.3196      5.0586      6.5484    
  9.2527      13.381      18.825      25.154      47.448      54.523      59.210      60.850      59.210      54.523    
  47.448      38.938      30.065      21.828      14.992      9.9720      6.7904      5.1073      4.3196      3.7986    
  3.4035      3.1402      2.9939      2.9476      2.9939      3.1402      3.4035      3.7986      4.3196      5.1074    
  6.7905      9.9721      14.992      21.828      30.065      38.938      66.463      74.064      78.148      78.148    
  74.064      66.463      56.368      45.060      33.852      23.868      15.883      10.231      6.7904      5.0586    
  4.2824      3.7667      3.3908      3.1559      3.0453      3.0453      3.1559      3.3908      3.7667      4.2824    
  5.0586      6.7905      10.231      15.884      23.868      33.852      45.061      56.368      87.388      94.621    
  97.149      94.621      87.388      76.429      63.159      49.159      35.916      24.591      15.884      9.9721    
  6.5484      4.9260      4.2101      3.7161      3.3745      3.1807      3.1186      3.1807      3.3745      3.7161    
  4.2101      4.9260      6.5484      9.9722      15.884      24.591      35.916      49.160      63.159      76.430    
  108.29      114.10      114.10      108.29      97.468      83.057      66.833      50.602      35.916      23.868    
  14.992      9.2527      6.1248      4.7427      4.1068      3.6514      3.3581      3.2178      3.2178      3.3581    
  3.6514      4.1067      4.7427      6.1248      9.2528      14.993      23.869      35.916      50.602      66.833    
  83.057      97.469      126.88      130.22      126.88      117.35      102.90      85.382      66.833      49.160    
  33.852      21.829      13.381      8.2255      5.6187      4.5432      3.9790      3.5786      3.3466      3.2715    
  3.3466      3.5786      3.9790      4.5432      5.6187      8.2255      13.381      21.829      33.853      49.160    
  66.833      85.382      102.90      117.35      140.87      140.87      133.76      120.52      102.90      83.057    
  63.159      45.061      30.065      18.825      11.349      7.0954      5.1319      4.3388      3.8364      3.5054    
  3.3450      3.3450      3.5054      3.8364      4.3388      5.1319      7.0954      11.349      18.825      30.065    
  45.061      63.159      83.057      102.90      120.52      133.76      148.39      144.60      133.76      117.35    
  97.469      76.430      56.369      38.939      25.155      15.351      9.2429      6.0596      4.7284      4.1179    
  3.6901      3.4391      3.3575      3.4391      3.6901      4.1179      4.7284      6.0596      9.2429      15.351    
  25.155      38.939      56.369      76.430      97.469      117.35      133.76      144.60      137.25      126.88    
  111.21      92.235      72.199      53.141      36.638      23.645      14.460      8.7866      5.8654      4.6521    
  4.0655      3.6504      3.4080      3.3293      3.4080      3.6504      4.0655      4.6521      5.8654      8.7865    
  14.459      23.645      36.638      53.141      72.199      92.235      111.20      126.88      137.25      140.87    
  126.88      114.10      97.150      78.149      59.211      42.100      28.028      17.564      10.668      6.7894    
  5.0193      4.2860      3.8009      3.4826      3.3287      3.3287      3.4826      3.8009      4.2860      5.0193    
  6.7893      10.668      17.564      28.027      42.100      59.210      78.148      97.149      114.10      126.88    
  133.76      133.76      111.20      97.149      80.225      62.466      45.714      31.360      20.207      12.458    
  7.7839      5.4500      4.4841      3.9453      3.5621      3.3405      3.2690      3.3405      3.5621      3.9453    
  4.4841      5.4500      7.7839      12.458      20.207      31.360      45.714      62.465      80.224      97.149    
  111.20      120.52      123.79      120.52      92.235      78.148      62.466      46.978      33.159      21.982    
  13.859      8.6770      5.8904      4.6664      4.0728      3.6391      3.3603      3.2271      3.2271      3.3603    
  3.6391      4.0728      4.6664      5.8904      8.6770      13.859      21.981      33.159      46.978      62.465    
  78.148      92.234      102.90      108.66      108.66      102.90      72.198      59.210      45.714      33.159    
  22.607      14.628      9.2967      6.2551      4.8280      4.1746      3.7062      3.3827      3.1993      3.1406    
  3.1993      3.3827      3.7062      4.1745      4.8280      6.2551      9.2966      14.628      22.606      33.158    
  45.713      59.209      72.198      83.056      90.286      92.824      90.286      83.057      53.140      42.100    
  31.360      21.982      14.628      9.5184      6.4620      4.9429      4.2449      3.7577      3.4031      3.1816    
  3.0774      3.0773      3.1816      3.4031      3.7577      4.2449      4.9428      6.4620      9.5183      14.628    
  21.981      31.359      42.099      53.140      63.158      70.797      74.934      74.934      70.797      63.159    
  36.638      28.027      20.207      13.859      9.2967      6.4620      4.9847      4.2807      3.7900      3.4182    
  3.1706      3.0332      2.9896      3.0332      3.1706      3.4182      3.7900      4.2806      4.9847      6.4620    
  9.2966      13.859      20.207      28.027      36.637      45.060      52.178      56.949      58.629      56.949    
  52.179      45.060      23.644      17.564      12.458      8.6770      6.2551      4.9429      4.2807      3.8009    
  3.4261      3.1646      3.0050      2.9308      2.9308      3.0050      3.1646      3.4261      3.8009      4.2807    
  4.9428      6.2550      8.6768      12.458      17.563      23.644      30.065      35.996      40.571      43.064    
  43.065      40.571      35.997      30.065      14.459      10.668      7.7838      5.8904      4.8280      4.2449    
  3.7900      3.4261      3.1626      2.9912      2.8970      2.8673      2.8970      2.9912      3.1626      3.4261    
  3.7900      4.2449      4.8280      5.8903      7.7837      10.668      14.459      18.824      23.226      27.021    
  29.596      30.508      29.596      27.022      23.227      18.825      8.7864      6.7893      5.4500      4.6664    
  4.1745      3.7577      3.4182      3.1646      2.9912      2.8860      2.8370      2.8370      2.8860      2.9912    
  3.1645      3.4182      3.7578      4.1746      4.6664      5.4499      6.7892      8.7863      11.348      14.197    
  16.923      19.072      20.258      20.258      19.072      16.923      14.197      11.349      5.8654      5.0193    
  4.4841      4.0728      3.7062      3.4031      3.1706      3.0050      2.8970      2.8370      2.8178      2.8370    
  2.8970      3.0050      3.1706      3.4031      3.7062      4.0728      4.4841      5.0193      5.8654      7.0953    
  8.6359      10.286      11.768      12.798      13.167      12.798      11.768      10.286      8.6360      7.0953    
  4.6521      4.2860      3.9453      3.6391      3.3827      3.1816      3.0332      2.9308      2.8673      2.8370    
  2.8370      2.8673      2.9308      3.0332      3.1816      3.3827      3.6390      3.9453      4.2861      4.6521    
  5.1319      5.7895      6.5872      7.4045      8.0795      8.4620      8.4620      8.0796      7.4046      6.5873    
  5.7895      5.1319      4.0655      3.8009      3.5621      3.3603      3.1993      3.0774      2.9896      2.9308    
  2.8970      2.8860      2.8970      2.9308      2.9896      3.0774      3.1993      3.3603      3.5621      3.8008    