fcc Ni                                  
   3.53000000000000     
     0.500000    0.500000    0.000000
     0.000000    0.500000    0.500000
     0.500000    0.000000    0.500000
   Ni
     1
Direct
  0.000000  0.000000  0.000000
 
   32   32   32
 0.15229118148E+03 0.14839254253E+03 0.13724751421E+03 0.12038305590E+03 0.99969197480E+02
 0.78387650973E+02 0.57822743667E+02 0.39960173092E+02 0.25825986226E+02 0.15755018765E+02
 0.94578383577E+01 0.61564185766E+01 0.47694042745E+01 0.41483114643E+01 0.37155585592E+01
 0.34609754638E+01 0.33780502877E+01 0.34609750265E+01 0.37155576946E+01 0.41483101976E+01
 0.47694026518E+01 0.61564166157E+01 0.94578359956E+01 0.15755015872E+02 0.25825982679E+02
 0.39960168907E+02 0.57822739141E+02 0.78387646682E+02 0.99969194074E+02 0.12038305376E+03
 0.13724751323E+03 0.14839254224E+03 0.14839251394E+03 0.14087291937E+03 0.12688423970E+03
 0.10829251892E+03 0.87389001884E+02 0.66463798400E+02 0.47448791931E+02 0.31688270651E+02
 0.19846112640E+02 0.11926570675E+02 0.73771531862E+01 0.52495562424E+01 0.44033419043E+01
 0.38911890996E+01 0.35512867434E+01 0.33859289822E+01 0.33859315983E+01 0.35512886674E+01
 0.38911832918E+01 0.44033328777E+01 0.52495497845E+01 0.73771372799E+01 0.11926525392E+02
 0.19846038810E+02 0.31688191231E+02 0.47448715633E+02 0.66463694295E+02 0.87388826854E+02
 0.10829227088E+03 0.12688397512E+03 0.14087271948E+03 0.14839244019E+03 0.13724740238E+03
 0.12688415273E+03 0.11120522904E+03 0.92234937028E+02 0.72198865900E+02 0.53140918431E+02
 0.36638050745E+02 0.23644769687E+02 0.14459591203E+02 0.87865827669E+01 0.58654469178E+01
 0.46521066640E+01 0.40654875854E+01 0.36504217817E+01 0.34079944331E+01 0.33292955731E+01
 0.34079917019E+01 0.36504154791E+01 0.40654811279E+01 0.46521032390E+01 0.58654338333E+01
 0.87865305915E+01 0.14459481415E+02 0.23644613814E+02 0.36637870005E+02 0.53140705974E+02
 0.72198583926E+02 0.92234562118E+02 0.11120479940E+03 0.12688376741E+03 0.13724717392E+03
 0.14087264167E+03 0.12038281390E+03 0.10829229677E+03 0.92234802203E+02 0.74208557522E+02
 0.56216422369E+02 0.39949505414E+02 0.26578373719E+02 0.16663362922E+02 0.10168049939E+02
 0.65516735069E+01 0.49206437731E+01 0.42252394353E+01 0.37498167711E+01 0.34399466007E+01
 0.32906920999E+01 0.32906866913E+01 0.34399356083E+01 0.37498100365E+01 0.42252399173E+01
 0.49206414807E+01 0.65516436572E+01 0.10167962856E+02 0.16663198460E+02 0.26578126556E+02
 0.39949179575E+02 0.56216024057E+02 0.74208097995E+02 0.92234312737E+02 0.10829184208E+03
 0.12038248463E+03 0.12688365713E+03 0.12688377815E+03 0.99968801490E+02 0.87388627688E+02
 0.72198586671E+02 0.56216283682E+02 0.41114162350E+02 0.28177283237E+02 0.18164622712E+02
 0.11272978049E+02 0.71867198711E+01 0.51948115359E+01 0.43591934015E+01 0.38405750985E+01
 0.34759538319E+01 0.32669964970E+01 0.31997723795E+01 0.32669922234E+01 0.34759451607E+01
 0.38405647502E+01 0.43591859929E+01 0.51948038314E+01 0.71866852953E+01 0.11272873392E+02
 0.18164409588E+02 0.28176946073E+02 0.41113713389E+02 0.56215759062E+02 0.72198041179E+02
 0.87388128831E+02 0.99968419249E+02 0.10829172112E+03 0.11120455749E+03 0.10829192865E+03
 0.78387118140E+02 0.66463303224E+02 0.53140535331E+02 0.39949272697E+02 0.28177190586E+02
 0.18697136226E+02 0.11887130295E+02 0.76366872631E+01 0.54258769416E+01 0.44626104581E+01
 0.39149917833E+01 0.35101384241E+01 0.32538503674E+01 0.31323870878E+01 0.31323879434E+01
 0.32538473372E+01 0.35101242455E+01 0.39149709936E+01 0.44625947895E+01 0.54258621022E+01
 0.76366372065E+01 0.11886997123E+02 0.18696887518E+02 0.28176819452E+02 0.39948794322E+02
 0.53139986842E+02 0.66462747570E+02 0.78386637482E+02 0.87388017298E+02 0.92234070252E+02
 0.92234185220E+02 0.87388342867E+02 0.57822137812E+02 0.47448251768E+02 0.36637642164E+02
 0.26578120061E+02 0.18164502118E+02 0.11887094150E+02 0.77993568977E+01 0.55589758905E+01
 0.45315425062E+01 0.39674145975E+01 0.35376649652E+01 0.32471382145E+01 0.30844565292E+01
 0.30326820864E+01 0.30844486172E+01 0.32471272783E+01 0.35376535344E+01 0.39673986572E+01
 0.45315158009E+01 0.55589287838E+01 0.77992689638E+01 0.11886938112E+02 0.18164253803E+02
 0.26577767909E+02 0.36637191664E+02 0.47447729871E+02 0.57821602811E+02 0.66462658955E+02
 0.72197833484E+02 0.74207749295E+02 0.72198098052E+02 0.66463112972E+02 0.39959588029E+02
 0.31687779517E+02 0.23644418649E+02 0.16663155011E+02 0.11272880589E+02 0.76366538968E+01
 0.55589688697E+01 0.45561549452E+01 0.39944182992E+01 0.35553058967E+01 0.32439005164E+01
 0.30523495330E+01 0.29629326846E+01 0.29629251891E+01 0.30523361225E+01 0.32438955356E+01
 0.35553081164E+01 0.39944102608E+01 0.45561216749E+01 0.55589032583E+01 0.76365453799E+01
 0.11272711952E+02 0.16662909536E+02 0.23644088956E+02 0.31687371541E+02 0.39959128591E+02
 0.47447669178E+02 0.53139833113E+02 0.56215481153E+02 0.56215607954E+02 0.53140170641E+02
 0.47448117415E+02 0.25825510601E+02 0.19845743725E+02 0.14459349173E+02 0.10167919230E+02
 0.71866637370E+01 0.54258581065E+01 0.45315372740E+01 0.39944173975E+01 0.35613630359E+01
 0.32425760201E+01 0.30337543525E+01 0.29187483967E+01 0.28823968466E+01 0.29187415545E+01
 0.30337450976E+01 0.32425733957E+01 0.35613733430E+01 0.39944322921E+01 0.45315334349E+01
 0.54258084264E+01 0.71865510201E+01 0.10167741811E+02 0.14459111496E+02 0.19845451072E+02
 0.25825179172E+02 0.31687336442E+02 0.36637094229E+02 0.39948603381E+02 0.41113406002E+02
 0.39948756532E+02 0.36637365268E+02 0.31687667172E+02 0.15754700393E+02 0.11926347445E+02
 0.87864519997E+01 0.65516106570E+01 0.51947863331E+01 0.44626011837E+01 0.39674121241E+01
 0.35553061047E+01 0.32425765142E+01 0.30276449872E+01 0.28972982232E+01 0.28367199283E+01
 0.28367178406E+01 0.28972884304E+01 0.30276272988E+01 0.32425660511E+01 0.35553206344E+01
 0.39674467196E+01 0.44626255332E+01 0.51947666957E+01 0.65515288012E+01 0.87863080574E+01
 0.11926151784E+02 0.15754474306E+02 0.19845434990E+02 0.23644037942E+02 0.26577657093E+02
 0.28176625489E+02 0.28176659421E+02 0.26577762105E+02 0.23644212226E+02 0.19845655247E+02
 0.94576690441E+01 0.73770478079E+01 0.58653916305E+01 0.49206180887E+01 0.43591819794E+01
 0.39149883304E+01 0.35376654091E+01 0.32439019635E+01 0.30337555915E+01 0.28972990162E+01
 0.28219431786E+01 0.27980119545E+01 0.28219383181E+01 0.28972818902E+01 0.30337249888E+01
 0.32438715883E+01 0.35376551571E+01 0.39150067173E+01 0.43592173805E+01 0.49206430972E+01
 0.58653735949E+01 0.73769677614E+01 0.94575357979E+01 0.11926147299E+02 0.14459091823E+02
 0.16662858465E+02 0.18164153111E+02 0.18696724894E+02 0.18164187561E+02 0.16662938557E+02
 0.14459219406E+02 0.11926298603E+02 0.61563488958E+01 0.52495158824E+01 0.46520845417E+01
 0.42252281174E+01 0.38405714249E+01 0.35101390297E+01 0.32471404038E+01 0.30523519855E+01
 0.29187508583E+01 0.28367223222E+01 0.27980136938E+01 0.27980153431E+01 0.28367216108E+01
 0.29187355770E+01 0.30523149087E+01 0.32470895057E+01 0.35100967881E+01 0.38405604834E+01
 0.42252533660E+01 0.46521266964E+01 0.52495409230E+01 0.61563302065E+01 0.73769689901E+01
 0.87863056422E+01 0.10167727180E+02 0.11272673757E+02 0.11886866207E+02 0.11886888440E+02
 0.11272736249E+02 0.10167816131E+02 0.87863969967E+01 0.73770340134E+01 0.47693789677E+01
 0.44033253723E+01 0.40654785135E+01 0.37498136260E+01 0.34759544239E+01 0.32538528425E+01
 0.30844599406E+01 0.29629368675E+01 0.28824018009E+01 0.28367231337E+01 0.28219429438E+01
 0.28367243574E+01 0.28824074589E+01 0.29629418165E+01 0.30844483558E+01 0.32538139947E+01
 0.34758984100E+01 0.37497666176E+01 0.40654626778E+01 0.44033443616E+01 0.47694174325E+01
 0.52495442599E+01 0.58653786318E+01 0.65515319290E+01 0.71865465788E+01 0.76365270576E+01
 0.77992327515E+01 0.76365843920E+01 0.71866232132E+01 0.65515829966E+01 0.58653837307E+01
 0.52495138744E+01 0.41483019076E+01 0.38911835491E+01 0.36504196865E+01 0.34399470388E+01
 0.32669987602E+01 0.31323909724E+01 0.30326877397E+01 0.29629326608E+01 0.29187503877E+01
 0.28972975743E+01 0.28972899872E+01 0.29187414315E+01 0.29629447627E+01 0.30327200589E+01
 0.31324156019E+01 0.32669881896E+01 0.34398991993E+01 0.36503569466E+01 0.38911353940E+01
 0.41482896997E+01 0.44033479206E+01 0.46521337369E+01 0.49206524827E+01 0.51947761112E+01
 0.54258146913E+01 0.55589033973E+01 0.55589215004E+01 0.54258486355E+01 0.51947873424E+01
 0.49206252268E+01 0.46520889900E+01 0.44033211536E+01 0.37155566041E+01 0.35512857999E+01
 0.34079946586E+01 0.32906938480E+01 0.31997762405E+01 0.31323944972E+01 0.30844580489E+01
 0.30523479495E+01 0.30337581854E+01 0.30276401603E+01 0.30337362063E+01 0.30523234781E+01
 0.30844538383E+01 0.31324180915E+01 0.31998138881E+01 0.32907199364E+01 0.34079887138E+01
 0.35512458018E+01 0.37155008934E+01 0.38911382115E+01 0.40654690154E+01 0.42252632513E+01
 0.43592300305E+01 0.44626394659E+01 0.45315468114E+01 0.45561328362E+01 0.45315237567E+01
 0.44625993437E+01 0.43591875330E+01 0.42252393134E+01 0.40654795147E+01 0.38911816416E+01
 0.34609753968E+01 0.33859289613E+01 0.33292966773E+01 0.32906900669E+01 0.32669988050E+01
 0.32538575117E+01 0.32471406790E+01 0.32439110946E+01 0.32425896319E+01 0.32425814489E+01
 0.32438849086E+01 0.32470999538E+01 0.32538212597E+01 0.32669924103E+01 0.32907216352E+01
 0.33293459337E+01 0.33859620444E+01 0.34609698039E+01 0.35512475196E+01 0.36503613964E+01
 0.37497744435E+01 0.38405717670E+01 0.39150209144E+01 0.39674627749E+01 0.39944488868E+01
 0.39944260862E+01 0.39674126300E+01 0.39149823862E+01 0.38405732461E+01 0.37498157145E+01
 0.36504187324E+01 0.35512901005E+01 0.33780499810E+01 0.33859319099E+01 0.34079939419E+01
 0.34399408427E+01 0.34759539817E+01 0.35101366097E+01 0.35376687609E+01 0.35553250564E+01
 0.35613906380E+01 0.35553369589E+01 0.35376693956E+01 0.35101081578E+01 0.34759065478E+01
 0.34399042044E+01 0.34079911184E+01 0.33859627146E+01 0.33780942083E+01 0.33859625966E+01
 0.34079909271E+01 0.34399040073E+01 0.34759064048E+01 0.35101080990E+01 0.35376694199E+01
 0.35553370514E+01 0.35613907930E+01 0.35553252900E+01 0.35376691041E+01 0.35101370829E+01
 0.34759545650E+01 0.34399414588E+01 0.34079944672E+01 0.33859322144E+01 0.34609742506E+01
 0.35512887608E+01 0.36504173465E+01 0.37498144118E+01 0.38405721026E+01 0.39149814216E+01
 0.39674118291E+01 0.39944254271E+01 0.39944483610E+01 0.39674623936E+01 0.39150206990E+01
 0.38405717310E+01 0.37497745718E+01 0.36503616364E+01 0.35512477891E+01 0.34609700168E+01
 0.33859621397E+01 0.33293458940E+01 0.32907214843E+01 0.32669921929E+01 0.32538210159E+01
 0.32470997039E+01 0.32438846566E+01 0.32425811991E+01 0.32425894031E+01 0.32439109167E+01
 0.32471405706E+01 0.32538574507E+01 0.32669987131E+01 0.32906898239E+01 0.33292961653E+01
 0.33859281184E+01 0.37155544540E+01 0.38911794778E+01 0.40654774772E+01 0.42252374751E+01
 0.43591859063E+01 0.44625979129E+01 0.45315225132E+01 0.45561317938E+01 0.45315459995E+01
 0.44626389143E+01 0.43592297561E+01 0.42252632466E+01 0.40654692385E+01 0.38911385858E+01
 0.37155013182E+01 0.35512461735E+01 0.34079889500E+01 0.32907199934E+01 0.31998137627E+01
 0.31324178094E+01 0.30844534364E+01 0.30523229921E+01 0.30337356684E+01 0.30276396024E+01
 0.30337576349E+01 0.30523474133E+01 0.30844574904E+01 0.31323938267E+01 0.31997753346E+01
 0.32906925972E+01 0.34079930219E+01 0.35512838356E+01 0.41482989839E+01 0.44033183938E+01
 0.46520864584E+01 0.49206229026E+01 0.51947851951E+01 0.54258466814E+01 0.55589198073E+01
 0.55589020484E+01 0.54258137432E+01 0.51947755752E+01 0.49206523330E+01 0.46521339262E+01
 0.44033483825E+01 0.41482903381E+01 0.38911360896E+01 0.36503575719E+01 0.34398996405E+01
 0.32669883692E+01 0.31324154941E+01 0.30327196891E+01 0.29629441928E+01 0.29187407374E+01
 0.28972892370E+01 0.28972968085E+01 0.29187496019E+01 0.29629317932E+01 0.30326866728E+01
 0.31323895634E+01 0.32669968962E+01 0.34399446961E+01 0.36504169580E+01 0.38911806191E+01
 0.47693754782E+01 0.52495105754E+01 0.58653805504E+01 0.65515798957E+01 0.71866202601E+01
 0.76365817578E+01 0.77992306366E+01 0.76365256003E+01 0.71865458015E+01 0.65515317491E+01
 0.58653789195E+01 0.52495448965E+01 0.47694183272E+01 0.44033454213E+01 0.40654637690E+01
 0.37497675834E+01 0.34758991011E+01 0.32538143065E+01 0.30844482598E+01 0.29629413668E+01
 0.28824067670E+01 0.28367235454E+01 0.28219420938E+01 0.28367222514E+01 0.28824008026E+01
 0.29629355966E+01 0.30844582151E+01 0.32538505268E+01 0.34759514972E+01 0.37498102117E+01
 0.40654748449E+01 0.44033217064E+01 0.61563446542E+01 0.73770296902E+01 0.87863925535E+01
 0.10167811718E+02 0.11272732197E+02 0.11886885144E+02 0.11886863979E+02 0.11272672701E+02
 0.10167727165E+02 0.87863063833E+01 0.73769701847E+01 0.61563316401E+01 0.52495424872E+01
 0.46521283229E+01 0.42252549393E+01 0.38405618264E+01 0.35100977290E+01 0.32470899354E+01
 0.30523148251E+01 0.29187350862E+01 0.28367208780E+01 0.27980145128E+01 0.27980128168E+01
 0.28367213210E+01 0.29187495448E+01 0.30523501268E+01 0.32471378170E+01 0.35101356725E+01
 0.38405674357E+01 0.42252237755E+01 0.46520801538E+01 0.52495115952E+01 0.94576632896E+01
 0.11926292399E+02 0.14459213007E+02 0.16662932500E+02 0.18164182520E+02 0.18696721460E+02
 0.18164151580E+02 0.16662858736E+02 0.14459093451E+02 0.11926149684E+02 0.94575384228E+01
 0.73769703293E+01 0.58653760181E+01 0.49206453696E+01 0.43592194407E+01 0.39150084030E+01
 0.35376563008E+01 0.32438721059E+01 0.30337249270E+01 0.28972814103E+01 0.28219376151E+01
 0.27980111501E+01 0.28219422448E+01 0.28972977689E+01 0.30337537572E+01 0.32438992969E+01
 0.35376618143E+01 0.39149839293E+01 0.43591770805E+01 0.49206130221E+01 0.58653864934E+01
 0.73770424618E+01 0.15754692193E+02 0.19845646474E+02 0.23644203648E+02 0.26577754737E+02
 0.28176654232E+02 0.28176623100E+02 0.26577657564E+02 0.23644040742E+02 0.19845439202E+02
 0.15754478963E+02 0.11926156189E+02 0.87863119101E+01 0.65515321098E+01 0.51947695671E+01
 0.44626279909E+01 0.39674486509E+01 0.35553219047E+01 0.32425666224E+01 0.30276272703E+01
 0.28972879972E+01 0.28367171852E+01 0.28367191048E+01 0.28972971028E+01 0.30276432968E+01
 0.32425739560E+01 0.35553025068E+01 0.39674075499E+01 0.44625959320E+01 0.51947807235E+01
 0.65516047385E+01 0.87864455453E+01 0.11926340158E+02 0.25825499455E+02 0.31687655884E+02
 0.36637355196E+02 0.39948749086E+02 0.41113402238E+02 0.39948603672E+02 0.36637098120E+02
 0.31687342785E+02 0.25825186521E+02 0.19845458170E+02 0.14459117612E+02 0.10167746775E+02
 0.71865550191E+01 0.54258117134E+01 0.45315361278E+01 0.39944343391E+01 0.35613746567E+01
 0.32425739871E+01 0.30337451017E+01 0.29187411642E+01 0.28823961917E+01 0.29187474428E+01
 0.30337528854E+01 0.32425737327E+01 0.35613596852E+01 0.39944129550E+01 0.45315319761E+01
 0.54258522329E+01 0.71866572971E+01 0.10167911920E+02 0.14459340581E+02 0.19845733677E+02
 0.39959574409E+02 0.47448104746E+02 0.53140160736E+02 0.56215602341E+02 0.56215480639E+02
 0.53139837511E+02 0.47447677315E+02 0.39959138673E+02 0.31687381739E+02 0.23644097956E+02
 0.16662916781E+02 0.11272717532E+02 0.76365496963E+01 0.55589066926E+01 0.45561244116E+01
 0.39944122922E+01 0.35553093970E+01 0.32438961111E+01 0.30523361358E+01 0.29629247981E+01
 0.29629319470E+01 0.30523483370E+01 0.32438986084E+01 0.35553030056E+01 0.39944143015E+01
 0.45561499716E+01 0.55589631312E+01 0.76366473719E+01 0.11272872930E+02 0.16663145702E+02
 0.23644407379E+02 0.31687766560E+02 0.57822123356E+02 0.66463101013E+02 0.72198090487E+02
 0.74207747367E+02 0.72197837412E+02 0.66462667807E+02 0.57821614738E+02 0.47447742669E+02
 0.36637203462E+02 0.26577777635E+02 0.18164261252E+02 0.11886943662E+02 0.77992731768E+01
 0.55589320968E+01 0.45315184076E+01 0.39674005617E+01 0.35376547154E+01 0.32471277952E+01
 0.30844485959E+01 0.30326816333E+01 0.30844556368E+01 0.32471367295E+01 0.35376626513E+01
 0.39674112760E+01 0.45315381935E+01 0.55589707095E+01 0.77993507970E+01 0.11887086779E+02
 0.18164492909E+02 0.26578108571E+02 0.36637628502E+02 0.47448236868E+02 0.78387105292E+02
 0.87388333942E+02 0.92234181717E+02 0.92234072773E+02 0.87388025344E+02 0.78386649510E+02
 0.66462761403E+02 0.53140000322E+02 0.39948805918E+02 0.28176828541E+02 0.18696894260E+02
 0.11887002089E+02 0.76366409905E+01 0.54258650975E+01 0.44625971410E+01 0.39149726892E+01
 0.35101252714E+01 0.32538477497E+01 0.31323878386E+01 0.31323865232E+01 0.32538492956E+01
 0.35101366931E+01 0.39149892203E+01 0.44626069991E+01 0.54258726272E+01 0.76366820158E+01
 0.11887123791E+02 0.18697127920E+02 0.28177179966E+02 0.39949259700E+02 0.53140520683E+02
 0.66463288463E+02 0.99968792507E+02 0.10829192418E+03 0.11120455828E+03 0.10829172708E+03
 0.99968429397E+02 0.87388141469E+02 0.72198054331E+02 0.56215771036E+02 0.41113723203E+02
 0.28176953538E+02 0.18164415080E+02 0.11272877492E+02 0.71866884996E+01 0.51948064145E+01
 0.43591880217E+01 0.38405661869E+01 0.34759459912E+01 0.32669924929E+01 0.31997721540E+01
 0.32669957999E+01 0.34759526055E+01 0.38405732269E+01 0.43591907969E+01 0.51948081875E+01
 0.71867156912E+01 0.11272972766E+02 0.18164615860E+02 0.28177274326E+02 0.41114151211E+02
 0.56216270812E+02 0.72198573322E+02 0.87388615618E+02 0.12038280964E+03 0.12688377776E+03
 0.12688366064E+03 0.12038249159E+03 0.10829185154E+03 0.92234323380E+02 0.74208108427E+02
 0.56216033199E+02 0.39949186913E+02 0.26578132132E+02 0.16663202650E+02 0.10167966107E+02
 0.65516462941E+01 0.49206436459E+01 0.42252416070E+01 0.37498111959E+01 0.34399362232E+01
 0.32906867946E+01 0.32906917342E+01 0.34399457728E+01 0.37498154363E+01 0.42252375323E+01
 0.49206412790E+01 0.65516703520E+01 0.10168045916E+02 0.16663357679E+02 0.26578366859E+02
 0.39949496752E+02 0.56216412229E+02 0.74208546852E+02 0.92234792385E+02 0.10829228921E+03
 0.13724740176E+03 0.14087264333E+03 0.13724717764E+03 0.12688377291E+03 0.11120480621E+03
 0.92234569533E+02 0.72198591134E+02 0.53140712323E+02 0.36637875190E+02 0.23644617882E+02
 0.14459484614E+02 0.87865331918E+01 0.58654360082E+01 0.46521050349E+01 0.40654824988E+01
 0.36504163700E+01 0.34079921008E+01 0.33292955021E+01 0.34079939184E+01 0.36504208274E+01
 0.40654861742E+01 0.46521047893E+01 0.58654445535E+01 0.87865797818E+01 0.14459587356E+02
 0.23644764697E+02 0.36638044464E+02 0.53140911081E+02 0.72198858189E+02 0.92234929998E+02
 0.11120522370E+03 0.12688414967E+03 0.14839251458E+03 0.14839244159E+03 0.14087272167E+03
 0.12688397829E+03 0.10829227506E+03 0.87388831740E+02 0.66463699321E+02 0.47448720262E+02
 0.31688195162E+02 0.19846042018E+02 0.11926528011E+02 0.73771394652E+01 0.52495516259E+01
 0.44033343745E+01 0.38911843856E+01 0.35512893162E+01 0.33859317926E+01 0.33859287334E+01
 0.35512860670E+01 0.38911880070E+01 0.44033404115E+01 0.52495543701E+01 0.73771508826E+01
 0.11926567798E+02 0.19846108999E+02 0.31688266130E+02 0.47448786668E+02 0.66463792906E+02
 0.87388996956E+02 0.10829251532E+03 0.12688423776E+03 0.14087291894E+03 0.14839251361E+03
 0.14087291827E+03 0.12688423782E+03 0.10829251648E+03 0.87388999268E+02 0.66463795996E+02
 0.47448790013E+02 0.31688269311E+02 0.19846111813E+02 0.11926570215E+02 0.73771529439E+01
 0.52495561156E+01 0.44033418465E+01 0.38911891007E+01 0.35512867948E+01 0.33859290718E+01
 0.33859317130E+01 0.35512887933E+01 0.38911834125E+01 0.44033329764E+01 0.52495498458E+01
 0.73771372758E+01 0.11926525282E+02 0.19846038554E+02 0.31688190817E+02 0.47448715116E+02
 0.66463693806E+02 0.87388826567E+02 0.10829227092E+03 0.12688397547E+03 0.14087271994E+03
 0.14839244043E+03 0.14087282812E+03 0.13021559692E+03 0.11410207434E+03 0.94621890415E+02
 0.74064676833E+02 0.54523879354E+02 0.37606111620E+02 0.24277778282E+02 0.14837836932E+02
 0.89855887457E+01 0.59540291819E+01 0.46903045966E+01 0.40949062421E+01 0.36749808091E+01
 0.34290510681E+01 0.33491121661E+01 0.34290467201E+01 0.36749739335E+01 0.40949010608E+01
 0.46903011002E+01 0.59540114115E+01 0.89855297430E+01 0.14837725787E+02 0.24277631665E+02
 0.37605946683E+02 0.54523677359E+02 0.74064388599E+02 0.94621489639E+02 0.11410160661E+03
 0.13021517477E+03 0.14087257731E+03 0.14460217488E+03 0.12688401805E+03 0.11410194050E+03
 0.97149560146E+02 0.78148801578E+02 0.59210508727E+02 0.42100419446E+02 0.28027703509E+02
 0.17563809800E+02 0.10668153673E+02 0.67893878693E+01 0.50193211725E+01 0.42860432489E+01
 0.38008727401E+01 0.34825621886E+01 0.33286840092E+01 0.33286785308E+01 0.34825508590E+01
 0.38008656949E+01 0.42860438725E+01 0.50193170661E+01 0.67893485729E+01 0.10668048189E+02
 0.17563626913E+02 0.28027450115E+02 0.42100099207E+02 0.59210109131E+02 0.78148311480E+02
 0.97149006131E+02 0.11410140659E+03 0.12688362518E+03 0.13376311520E+03 0.13376326028E+03
 0.10829214435E+03 0.94621600096E+02 0.78148645933E+02 0.60850848472E+02 0.44526273836E+02
 0.30537598236E+02 0.19677961531E+02 0.12149442233E+02 0.76270181466E+01 0.53825023606E+01
 0.44521886305E+01 0.39187006591E+01 0.35401595799E+01 0.33217688965E+01 0.32512869431E+01
 0.33217654143E+01 0.35401512852E+01 0.39186913154E+01 0.44521845121E+01 0.53824946204E+01
 0.76269679022E+01 0.12149300552E+02 0.19677699453E+02 0.30537215231E+02 0.44525785517E+02
 0.60850280369E+02 0.78148044036E+02 0.94621038224E+02 0.10829170920E+03 0.11735109512E+03
 0.12052434951E+03 0.11735133178E+03 0.87388482604E+02 0.74064245509E+02 0.59210218697E+02
 0.44526142902E+02 0.31420275654E+02 0.20832364759E+02 0.13165146723E+02 0.83072237294E+01
 0.57235018860E+01 0.45949117854E+01 0.40191615457E+01 0.35950056683E+01 0.33238301035E+01
 0.31946065030E+01 0.31946075595E+01 0.33238276511E+01 0.35949929745E+01 0.40191445541E+01
 0.45949026681E+01 0.57234906438E+01 0.83071631712E+01 0.13164977013E+02 0.20832046555E+02
 0.31419806121E+02 0.44525556145E+02 0.59209582072E+02 0.74063648274E+02 0.87388009736E+02
 0.97468119351E+02 0.10290299833E+03 0.10290309729E+03 0.97468414348E+02 0.66463183785E+02
 0.54523366718E+02 0.42100058834E+02 0.30537398863E+02 0.20832292982E+02 0.13526453012E+02
 0.86884814156E+01 0.59685199051E+01 0.47077526667E+01 0.40951902570E+01 0.36410522307E+01
 0.33301194885E+01 0.31547117808E+01 0.30986954988E+01 0.31547050655E+01 0.33301082928E+01
 0.36410379313E+01 0.40951730497E+01 0.47077334343E+01 0.59684869739E+01 0.86883974696E+01
 0.13526264149E+02 0.20831957074E+02 0.30536915469E+02 0.42099476695E+02 0.54522764871E+02
 0.66462645189E+02 0.76429233585E+02 0.83056475532E+02 0.85381450587E+02 0.83056692468E+02
 0.76429637900E+02 0.47448166509E+02 0.37605606356E+02 0.28027355650E+02 0.19677766107E+02
 0.13165063794E+02 0.86884597071E+01 0.60577663237E+01 0.47715773602E+01 0.41423251867E+01
 0.36738924546E+01 0.33368148873E+01 0.31276893613E+01 0.30296413462E+01 0.30296338084E+01
 0.31276751494E+01 0.33368062409E+01 0.36738864278E+01 0.41423073080E+01 0.47715400783E+01
 0.60577024273E+01 0.86883450716E+01 0.13164859425E+02 0.19677443424E+02 0.28026919944E+02
 0.37605095339E+02 0.47447635989E+02 0.56367423511E+02 0.63158249538E+02 0.66832227568E+02
 0.66832353150E+02 0.63158592285E+02 0.56367903101E+02 0.31687727725E+02 0.24277364828E+02
 0.17563542522E+02 0.12149300893E+02 0.83071657352E+01 0.59685027718E+01 0.47715740779E+01
 0.41582686661E+01 0.36909040239E+01 0.33415571060E+01 0.31107613034E+01 0.29831482499E+01
 0.29427559608E+01 0.29831402555E+01 0.31107530886E+01 0.33415552641E+01 0.36909051513E+01
 0.41582597916E+01 0.47715408281E+01 0.59684281652E+01 0.83070311826E+01 0.12149090276E+02
 0.17563246594E+02 0.24276988572E+02 0.31687299283E+02 0.38937764260E+02 0.45059967758E+02
 0.49158789824E+02 0.50601331893E+02 0.49158986389E+02 0.45060315279E+02 0.38938189571E+02
 0.19845718509E+02 0.14837561487E+02 0.10667992505E+02 0.76269418506E+01 0.57234733474E+01
 0.47077437794E+01 0.41423228711E+01 0.36909039067E+01 0.33432411716E+01 0.31025361407E+01
 0.29562433268E+01 0.28882815549E+01 0.28882798054E+01 0.29562362954E+01 0.31025256050E+01
 0.33432389709E+01 0.36909193128E+01 0.41423441630E+01 0.47077413327E+01 0.57234164432E+01
 0.76268143587E+01 0.10667792454E+02 0.14837295364E+02 0.19845408333E+02 0.25153973932E+02
 0.30064619239E+02 0.33851773632E+02 0.35915276890E+02 0.35915329676E+02 0.33851932015E+02
 0.30064871812E+02 0.25154282813E+02 0.11926339634E+02 0.89854448527E+01 0.67893138147E+01
 0.53824708305E+01 0.45948996480E+01 0.40951862405E+01 0.36738921724E+01 0.33415577009E+01
 0.31025364951E+01 0.29474209114E+01 0.28620757547E+01 0.28350576924E+01 0.28620687896E+01
 0.29474034737E+01 0.31025147131E+01 0.33415500272E+01 0.36739116049E+01 0.40952227600E+01
 0.45949246142E+01 0.53824517898E+01 0.67892279506E+01 0.89852881809E+01 0.11926131911E+02
 0.15350417755E+02 0.18824405144E+02 0.21828120125E+02 0.23868019297E+02 0.24590754398E+02
 0.23868066954E+02 0.21828230641E+02 0.18824582291E+02 0.15350634231E+02 0.73770491119E+01
 0.59539720058E+01 0.50192937221E+01 0.44521759244E+01 0.40191568764E+01 0.36410519316E+01
 0.33368159799E+01 0.31107623406E+01 0.29562441184E+01 0.28620763797E+01 0.28179641529E+01
 0.28179625265E+01 0.28620672948E+01 0.29562209659E+01 0.31107272749E+01 0.33367837495E+01
 0.36410411527E+01 0.40191755729E+01 0.44522125644E+01 0.50193182738E+01 0.59539492243E+01
 0.73769627771E+01 0.92426313465E+01 0.11348328792E+02 0.13381064149E+02 0.14992120144E+02
 0.15883363267E+02 0.15883383095E+02 0.14992183922E+02 0.13381174692E+02 0.11348469766E+02
 0.92427648800E+01 0.52495204929E+01 0.46902846702E+01 0.42860324657E+01 0.39186965134E+01
 0.35950054696E+01 0.33301208237E+01 0.31276909401E+01 0.29831499059E+01 0.28882835434E+01
 0.28350598990E+01 0.28179641772E+01 0.28350622647E+01 0.28882817993E+01 0.29831330830E+01
 0.31276518119E+01 0.33300669924E+01 0.35949603899E+01 0.39186838932E+01 0.42860562908E+01
 0.46903235548E+01 0.52495400204E+01 0.60594779693E+01 0.70952583895E+01 0.82253078107E+01
 0.92525027512E+01 0.99719771221E+01 0.10230672866E+02 0.99720320736E+01 0.92525937662E+01
 0.82254042627E+01 0.70953289544E+01 0.60595026746E+01 0.44033301211E+01 0.40948994802E+01
 0.38008700946E+01 0.35401595454E+01 0.33238313122E+01 0.31547135823E+01 0.30296438343E+01
 0.29427594924E+01 0.28882843901E+01 0.28620737841E+01 0.28620715809E+01 0.28882842715E+01
 0.29427689401E+01 0.30296536727E+01 0.31547024912E+01 0.33237892092E+01 0.35401007360E+01
 0.38008217018E+01 0.40948811783E+01 0.44033443057E+01 0.47283905120E+01 0.51318882554E+01
 0.56186855681E+01 0.61246913358E+01 0.65483247550E+01 0.67903795815E+01 0.67904092527E+01
 0.65483911419E+01 0.61247475720E+01 0.56187006243E+01 0.51318662319E+01 0.47283585226E+01
 0.38911871972E+01 0.36749801430E+01 0.34825623638E+01 0.33217696955E+01 0.31946081511E+01
 0.30986985651E+01 0.30296388076E+01 0.29831472140E+01 0.29562445601E+01 0.29474118754E+01
 0.29562282251E+01 0.29831382200E+01 0.30296562227E+01 0.30987338166E+01 0.31946319939E+01
 0.33217580024E+01 0.34825137837E+01 0.36749149129E+01 0.38911349024E+01 0.41179017634E+01
 0.43388405256E+01 0.45432008359E+01 0.47427058611E+01 0.49259459885E+01 0.50586016885E+01
 0.51073274630E+01 0.50586167129E+01 0.49259521624E+01 0.47426849414E+01 0.45431636673E+01
 0.43388183220E+01 0.41179178113E+01 0.35512879720E+01 0.34290514590E+01 0.33286843190E+01
 0.32512881641E+01 0.31946107506E+01 0.31547109699E+01 0.31276838614E+01 0.31107639603E+01
 0.31025374402E+01 0.31025261358E+01 0.31107370930E+01 0.31276592429E+01 0.31547072217E+01
 0.31946341321E+01 0.32513253982E+01 0.33287094380E+01 0.34290434623E+01 0.35512454819E+01
 0.36900369120E+01 0.38363682965E+01 0.39790286805E+01 0.41067804034E+01 0.42101634666E+01
 0.42824076126E+01 0.43196331759E+01 0.43196163579E+01 0.42823666450E+01 0.42101213011E+01
 0.41067608968E+01 0.39790446743E+01 0.38364154732E+01 0.36900951388E+01 0.33859296216E+01
 0.33491120139E+01 0.33286790793E+01 0.33217680050E+01 0.33238332365E+01 0.33301171655E+01
 0.33368179596E+01 0.33415688107E+01 0.33432530473E+01 0.33415633563E+01 0.33367952881E+01
 0.33300760459E+01 0.33237954790E+01 0.33217615934E+01 0.33287108321E+01 0.33491602525E+01
 0.33859614372E+01 0.34391138221E+01 0.35053347218E+01 0.35785854532E+01 0.36513470990E+01
 0.37161351981E+01 0.37667109600E+01 0.37986895428E+01 0.38095945322E+01 0.37986553741E+01
 0.37666769919E+01 0.37161372733E+01 0.36513914852E+01 0.35786474046E+01 0.35053801055E+01
 0.34391205650E+01 0.33859310710E+01 0.34290461481E+01 0.34825516450E+01 0.35401544756E+01
 0.35949991905E+01 0.36410472543E+01 0.36738984079E+01 0.36909189233E+01 0.36909337614E+01
 0.36739255338E+01 0.36410534555E+01 0.35949702257E+01 0.35401076785E+01 0.34825178939E+01
 0.34290452576E+01 0.33859617879E+01 0.33575220200E+01 0.33449975426E+01 0.33465715203E+01
 0.33581094380E+01 0.33744658222E+01 0.33908055710E+01 0.34034836597E+01 0.34103007979E+01
 0.34102998106E+01 0.34034905581E+01 0.33908350665E+01 0.33745128688E+01 0.33581475991E+01
 0.33465764598E+01 0.33449679397E+01 0.33574784267E+01 0.35512863725E+01 0.36749712308E+01
 0.38008636645E+01 0.39186909670E+01 0.40191467927E+01 0.40951784583E+01 0.41423159643E+01
 0.41582711783E+01 0.41423572081E+01 0.40952360253E+01 0.40191875715E+01 0.39186934448E+01
 0.38008281945E+01 0.36749183790E+01 0.35512465013E+01 0.34391133429E+01 0.33449967064E+01
 0.32715620300E+01 0.32178806618E+01 0.31806581929E+01 0.31558731565E+01 0.31401385387E+01
 0.31313324798E+01 0.31284884103E+01 0.31313572342E+01 0.31401779883E+01 0.31559067214E+01
 0.31806631547E+01 0.32178494429E+01 0.32715124483E+01 0.33449615440E+01 0.34391164263E+01
 0.38911755280E+01 0.40948909772E+01 0.42860329209E+01 0.44521745017E+01 0.45948952200E+01
 0.47077299763E+01 0.47715416083E+01 0.47715472639E+01 0.47077512954E+01 0.45949359173E+01
 0.44522230176E+01 0.42860642890E+01 0.40948859330E+01 0.38911364531E+01 0.36900359287E+01
 0.35053322363E+01 0.33465687080E+01 0.32178787064E+01 0.31186297311E+01 0.30453548606E+01
 0.29939412323E+01 0.29611568233E+01 0.29451439195E+01 0.29451556969E+01 0.29611787752E+01
 0.29939472100E+01 0.30453324839E+01 0.31185918836E+01 0.32178517489E+01 0.33465724467E+01