fcc Ni                                  
   3.53000000000000     
     0.500000    0.500000    0.000000
     0.000000    0.500000    0.500000
     0.500000    0.000000    0.500000
   Ni
     1
Direct
  0.000000  0.000000  0.000000
 
   32   32   32
 0.15246059033E+03 0.14855705075E+03 0.13739873998E+03 0.12051611520E+03 0.10008296861E+03
 0.78483305845E+02 0.57901689024E+02 0.40022836492E+02 0.25872175327E+02 0.15785339253E+02
 0.94747881857E+01 0.61640087452E+01 0.47713898541E+01 0.41464309019E+01 0.37104403772E+01
 0.34537116923E+01 0.33700399158E+01 0.34537116673E+01 0.37104402886E+01 0.41464306939E+01
 0.47713894791E+01 0.61640081617E+01 0.94747873297E+01 0.15785338015E+02 0.25872173569E+02
 0.40022834120E+02 0.57901686089E+02 0.78483302592E+02 0.10008296543E+03 0.12051611250E+03
 0.13739873807E+03 0.14855704977E+03 0.14855704797E+03 0.14102830083E+03 0.12702395099E+03
 0.10841374481E+03 0.87491936802E+02 0.66549775278E+02 0.47518602179E+02 0.31741804713E+02
 0.19883398382E+02 0.11949159301E+02 0.73884802133E+01 0.52537235968E+01 0.44031380386E+01
 0.38874146862E+01 0.35447923630E+01 0.33779872035E+01 0.33780032187E+01 0.35448295178E+01
 0.38874569291E+01 0.44031859860E+01 0.52537861793E+01 0.73885583716E+01 0.11949241711E+02
 0.19883479337E+02 0.31741892799E+02 0.47518701909E+02 0.66549871108E+02 0.87492008028E+02
 0.10841379061E+03 0.12702398695E+03 0.14102833229E+03 0.14855706171E+03 0.13739874039E+03
 0.12702396018E+03 0.11132924615E+03 0.92341964343E+02 0.72289480459E+02 0.53215799559E+02
 0.36697135857E+02 0.23687771239E+02 0.14487297788E+02 0.88016745032E+01 0.58718863664E+01
 0.46533498597E+01 0.40629545210E+01 0.36447348536E+01 0.34002442085E+01 0.33208486256E+01
 0.34002916414E+01 0.36448129926E+01 0.40630519256E+01 0.46534653035E+01 0.58720176951E+01
 0.88018141122E+01 0.14487432437E+02 0.23687894933E+02 0.36697252136E+02 0.53215910443E+02
 0.72289582556E+02 0.92342057621E+02 0.11132933574E+03 0.12702404212E+03 0.13739879291E+03
 0.14102832794E+03 0.12051614412E+03 0.10841379030E+03 0.92342000577E+02 0.74300920170E+02
 0.56294033991E+02 0.40012103581E+02 0.26625440569E+02 0.16695137166E+02 0.10186487392E+02
 0.65603131785E+01 0.49231818461E+01 0.42237634184E+01 0.37449035338E+01 0.34324769361E+01
 0.32818890209E+01 0.32819197719E+01 0.34325627835E+01 0.37450318057E+01 0.42239233277E+01
 0.49233582978E+01 0.65604967592E+01 0.10186668380E+02 0.16695293278E+02 0.26625547811E+02
 0.40012159600E+02 0.56294067967E+02 0.74300975271E+02 0.92342101289E+02 0.10841392127E+03
 0.12051625735E+03 0.12702404037E+03 0.12702399551E+03 0.10008305450E+03 0.87492038582E+02
 0.72289565820E+02 0.56294078613E+02 0.41178064972E+02 0.28226514492E+02 0.18199030950E+02
 0.11293924867E+02 0.71972173512E+01 0.51984697711E+01 0.43585355441E+01 0.38363323943E+01
 0.34688059101E+01 0.32579954654E+01 0.31901625932E+01 0.32580679638E+01 0.34689334607E+01
 0.38365006109E+01 0.43587393796E+01 0.51986961021E+01 0.71974508893E+01 0.11294135258E+02
 0.18199177937E+02 0.28226575529E+02 0.41178058100E+02 0.56294057509E+02 0.72289586950E+02
 0.87492122449E+02 0.10008316936E+03 0.10841392618E+03 0.11132935628E+03 0.10841384374E+03
 0.78483453894E+02 0.66549926013E+02 0.53215921496E+02 0.40012180195E+02 0.28226547315E+02
 0.18732510887E+02 0.11909442532E+02 0.76484338700E+01 0.54303740370E+01 0.44625158516E+01
 0.39112541010E+01 0.35032885482E+01 0.32447753106E+01 0.31221770989E+01 0.31222157046E+01
 0.32448801686E+01 0.35034428952E+01 0.39114567709E+01 0.44627647665E+01 0.54306422367E+01
 0.76486870345E+01 0.11909645466E+02 0.18732642496E+02 0.28226608620E+02 0.40012189426E+02
 0.53215904851E+02 0.66549908812E+02 0.78483450578E+02 0.87492133475E+02 0.92342133882E+02
 0.92342128787E+02 0.87492125785E+02 0.57901871847E+02 0.47518770600E+02 0.36697268146E+02
 0.26625530211E+02 0.18199082395E+02 0.11909463788E+02 0.78115636558E+01 0.55639281473E+01
 0.45317742825E+01 0.39639882965E+01 0.35310290595E+01 0.32380510034E+01 0.30738608877E+01
 0.30215990673E+01 0.30739196915E+01 0.32381749799E+01 0.35312239641E+01 0.39642468341E+01
 0.45320592679E+01 0.55641912163E+01 0.78117830185E+01 0.11909637360E+02 0.18199215683E+02
 0.26625624972E+02 0.36697314263E+02 0.47518750792E+02 0.57901784090E+02 0.66549920215E+02
 0.72289622933E+02 0.74301052284E+02 0.72289709800E+02 0.66550040357E+02 0.40023013271E+02
 0.31741959993E+02 0.23687895316E+02 0.16695228472E+02 0.11293984761E+02 0.76484653747E+01
 0.55639385849E+01 0.45564976994E+01 0.39911326924E+01 0.35487833128E+01 0.32348113245E+01
 0.30415243569E+01 0.29512507100E+01 0.29512716336E+01 0.30416009790E+01 0.32349690039E+01
 0.35490279405E+01 0.39914336795E+01 0.45567906300E+01 0.55641695361E+01 0.76486287083E+01
 0.11294103034E+02 0.16695324313E+02 0.23687969359E+02 0.31741985444E+02 0.40022958931E+02
 0.47518754560E+02 0.53215929720E+02 0.56294121016E+02 0.56294180064E+02 0.53216066360E+02
 0.47518882208E+02 0.25872321232E+02 0.19883530143E+02 0.14487410259E+02 0.10186575167E+02
 0.71972756141E+01 0.54304041757E+01 0.45317867477E+01 0.39911392631E+01 0.35548779549E+01
 0.32334839239E+01 0.30228070916E+01 0.29067199981E+01 0.28700296726E+01 0.29067619483E+01
 0.30229044003E+01 0.32336571116E+01 0.35551354620E+01 0.39914515035E+01 0.45320764952E+01
 0.54305986626E+01 0.71973655282E+01 0.10186599292E+02 0.14487409617E+02 0.19883515868E+02
 0.25872281435E+02 0.31741975495E+02 0.36697314631E+02 0.40012220027E+02 0.41178131114E+02
 0.40012274147E+02 0.36697395090E+02 0.31742045796E+02 0.15785455500E+02 0.11949272711E+02
 0.88017746865E+01 0.65603883736E+01 0.51985152559E+01 0.44625405022E+01 0.39640087193E+01
 0.35488003568E+01 0.32334912272E+01 0.30166605653E+01 0.28851151538E+01 0.28239782068E+01
 0.28239977584E+01 0.28851702682E+01 0.30167523796E+01 0.32336384043E+01 0.35490212247E+01
 0.39642833839E+01 0.44627954935E+01 0.51986709279E+01 0.65604220387E+01 0.88017126509E+01
 0.11949158485E+02 0.15785330182E+02 0.19883490764E+02 0.23687939059E+02 0.26625611200E+02
 0.28226626964E+02 0.28226630247E+02 0.26625632618E+02 0.23687998914E+02 0.19883593167E+02
 0.94748842567E+01 0.73885751823E+01 0.58719644102E+01 0.49232344832E+01 0.43585707010E+01
 0.39112891108E+01 0.35310620712E+01 0.32348318586E+01 0.30228126997E+01 0.28851132598E+01
 0.28090847535E+01 0.27849609893E+01 0.28091276600E+01 0.28851774242E+01 0.30228821978E+01
 0.32349185350E+01 0.35311945385E+01 0.39114759046E+01 0.43587700681E+01 0.49233671925E+01
 0.58719740466E+01 0.73884564167E+01 0.94746843774E+01 0.11949121560E+02 0.14487351603E+02
 0.16695266383E+02 0.18199176396E+02 0.18732631815E+02 0.18199196762E+02 0.16695337819E+02
 0.14487498889E+02 0.11949326736E+02 0.61640817369E+01 0.52537894782E+01 0.46534001471E+01
 0.42238069411E+01 0.38363805113E+01 0.35033339416E+01 0.32380806090E+01 0.30415330996E+01
 0.29067138150E+01 0.28239676889E+01 0.27849539900E+01 0.27849866326E+01 0.28240459533E+01
 0.29067947705E+01 0.30415860563E+01 0.32381128746E+01 0.35033831000E+01 0.38364759452E+01
 0.42239311547E+01 0.46534859928E+01 0.52537733857E+01 0.61639494830E+01 0.73884140018E+01
 0.88016369312E+01 0.10186507694E+02 0.11294014876E+02 0.11909567362E+02 0.11909601313E+02
 0.11294119666E+02 0.10186682163E+02 0.88018562590E+01 0.73886228327E+01 0.47714335617E+01
 0.44031813557E+01 0.40630050650E+01 0.37449607573E+01 0.34688577784E+01 0.32448082824E+01
 0.30738694591E+01 0.29512397871E+01 0.28700095937E+01 0.28239774149E+01 0.28091114870E+01
 0.28240360785E+01 0.28701089125E+01 0.29513454821E+01 0.30739453154E+01 0.32448396689E+01
 0.34688609683E+01 0.37449638902E+01 0.40630181886E+01 0.44031850510E+01 0.47713963952E+01
 0.52537322560E+01 0.58718936397E+01 0.65603133272E+01 0.71972452402E+01 0.76485137042E+01
 0.78116862587E+01 0.76486169270E+01 0.71974123428E+01 0.65604909837E+01 0.58720401593E+01
 0.52538258749E+01 0.41464717019E+01 0.38874704674E+01 0.36447960907E+01 0.34325297641E+01
 0.32580279440E+01 0.31221847060E+01 0.30215856435E+01 0.29512455906E+01 0.29067310381E+01
 0.28851388365E+01 0.28851475483E+01 0.29067693122E+01 0.29513297069E+01 0.30217025523E+01
 0.31222895485E+01 0.32580765268E+01 0.34325092263E+01 0.36447262407E+01 0.38873842571E+01
 0.41463955163E+01 0.44031500336E+01 0.46534124427E+01 0.49232589017E+01 0.51985390236E+01
 0.54304584606E+01 0.55640364450E+01 0.55640779735E+01 0.54305577323E+01 0.51986445186E+01
 0.49233381351E+01 0.46534701086E+01 0.44032092425E+01 0.37104970413E+01 0.35448525662E+01
 0.34002953360E+01 0.32819217911E+01 0.31901734335E+01 0.31222064760E+01 0.30738950659E+01
 0.30415653938E+01 0.30228606844E+01 0.30167027232E+01 0.30228302406E+01 0.30415379931E+01
 0.30739087278E+01 0.31222704644E+01 0.31902574674E+01 0.32819746469E+01 0.34002773400E+01
 0.35447589470E+01 0.37103580524E+01 0.38873576137E+01 0.40629583894E+01 0.42238368348E+01
 0.43586461280E+01 0.44626527243E+01 0.45319292446E+01 0.45566535947E+01 0.45319447595E+01
 0.44626808859E+01 0.43586894254E+01 0.42239071807E+01 0.40630670396E+01 0.38874975831E+01
 0.34537663021E+01 0.33780366851E+01 0.33208860230E+01 0.32819411184E+01 0.32580716270E+01
 0.32448656162E+01 0.32381419387E+01 0.32349177330E+01 0.32335896724E+01 0.32335599615E+01
 0.32348374992E+01 0.32380393144E+01 0.32447824866E+01 0.32580406718E+01 0.32819596026E+01
 0.33209139151E+01 0.33780245330E+01 0.34536876319E+01 0.35447422498E+01 0.36446841309E+01
 0.37448916292E+01 0.38363741632E+01 0.39113510513E+01 0.39641468048E+01 0.39913172276E+01
 0.39913155675E+01 0.39641559647E+01 0.39113997287E+01 0.38364788764E+01 0.37450420572E+01
 0.36448480251E+01 0.35448796090E+01 0.33700888941E+01 0.33780490790E+01 0.34003282473E+01
 0.34325838844E+01 0.34689330629E+01 0.35034161993E+01 0.35311687692E+01 0.35489460489E+01
 0.35550333763E+01 0.35489095418E+01 0.35310859305E+01 0.35032894159E+01 0.34687904321E+01
 0.34324646816E+01 0.34002559927E+01 0.33780189885E+01 0.33700750912E+01 0.33780187465E+01
 0.34002555424E+01 0.34324640865E+01 0.34687897750E+01 0.35032887845E+01 0.35310853992E+01
 0.35489091561E+01 0.35550331444E+01 0.35489459441E+01 0.35311687423E+01 0.35034161981E+01
 0.34689330506E+01 0.34325838500E+01 0.34003282032E+01 0.33780490484E+01 0.34537663691E+01
 0.35448796678E+01 0.36448480253E+01 0.37450419625E+01 0.38364786849E+01 0.39113994816E+01
 0.39641557381E+01 0.39913154493E+01 0.39913172888E+01 0.39641470757E+01 0.39113515106E+01
 0.38363747423E+01 0.37448922300E+01 0.36446846490E+01 0.35447425972E+01 0.34536877520E+01
 0.33780244062E+01 0.33209135575E+01 0.32819590597E+01 0.32580400094E+01 0.32447817788E+01
 0.32380386307E+01 0.32348368929E+01 0.32335594618E+01 0.32335892829E+01 0.32349174380E+01
 0.32381417140E+01 0.32448654422E+01 0.32580714966E+01 0.32819410371E+01 0.33208859994E+01
 0.33780367178E+01 0.37104971639E+01 0.38874976267E+01 0.40630669316E+01 0.42239068881E+01
 0.43586889742E+01 0.44626803599E+01 0.45319442774E+01 0.45566532746E+01 0.45319291683E+01
 0.44626529137E+01 0.43586465401E+01 0.42238373744E+01 0.40629589361E+01 0.38873580515E+01
 0.37103582944E+01 0.35447589475E+01 0.34002770956E+01 0.32819741888E+01 0.31902568497E+01
 0.31222697517E+01 0.30739079836E+01 0.30415372704E+01 0.30228295763E+01 0.30167021365E+01
 0.30228601802E+01 0.30415649701E+01 0.30738947219E+01 0.31222062181E+01 0.31901732743E+01
 0.32819217406E+01 0.34002953878E+01 0.35448526858E+01 0.41464718551E+01 0.44032092241E+01
 0.46534698426E+01 0.49233376133E+01 0.51986438107E+01 0.54305569683E+01 0.55640773059E+01
 0.55640360053E+01 0.54304583239E+01 0.51985391912E+01 0.49232593040E+01 0.46534129606E+01
 0.44031505316E+01 0.41463958753E+01 0.38873843979E+01 0.36447261325E+01 0.34325088821E+01
 0.32580759903E+01 0.31222888789E+01 0.30217018103E+01 0.29513289452E+01 0.29067685702E+01
 0.28851468514E+01 0.28851381989E+01 0.29067304692E+01 0.29512451022E+01 0.30215852552E+01
 0.31221844441E+01 0.32580278322E+01 0.34325298067E+01 0.36447962561E+01 0.38874706808E+01
 0.47714337023E+01 0.52538257475E+01 0.58720397113E+01 0.65604902544E+01 0.71974114529E+01
 0.76486160414E+01 0.78116855396E+01 0.76485132703E+01 0.71972451411E+01 0.65603135360E+01
 0.58718940644E+01 0.52537327640E+01 0.47713968477E+01 0.44031853351E+01 0.40630182383E+01
 0.37449636910E+01 0.34688605475E+01 0.32448390789E+01 0.30739446164E+01 0.29513447293E+01
 0.28701081488E+01 0.28240353331E+01 0.28091107776E+01 0.28239767543E+01 0.28700089976E+01
 0.29512392815E+01 0.30738690821E+01 0.32448080755E+01 0.34688577680E+01 0.37449609313E+01
 0.40630053555E+01 0.44031816430E+01 0.61640817912E+01 0.73886225466E+01 0.88018556363E+01
 0.10186681304E+02 0.11294118733E+02 0.11909600475E+02 0.11909566757E+02 0.11294014581E+02
 0.10186507720E+02 0.88016372255E+01 0.73884144622E+01 0.61639499799E+01 0.52537737907E+01
 0.46534862071E+01 0.42239311274E+01 0.38364756759E+01 0.35033826257E+01 0.32381122516E+01
 0.30415853429E+01 0.29067940160E+01 0.28240451925E+01 0.27849858872E+01 0.27849532734E+01
 0.28239670148E+01 0.29067132079E+01 0.30415326015E+01 0.32380802754E+01 0.35033338238E+01
 0.38363806273E+01 0.42238072477E+01 0.46534005309E+01 0.52537897768E+01 0.94748841186E+01
 0.11949326247E+02 0.14487498134E+02 0.16695336953E+02 0.18199195954E+02 0.18732631200E+02
 0.18199176051E+02 0.16695266325E+02 0.14487351804E+02 0.11949121952E+02 0.94746848661E+01
 0.73884568909E+01 0.58719743994E+01 0.49233673431E+01 0.43587699789E+01 0.39114755838E+01
 0.35311940272E+01 0.32349178894E+01 0.30228814731E+01 0.28851766645E+01 0.28091268942E+01
 0.27849602333E+01 0.28090840184E+01 0.28851125636E+01 0.30228120793E+01 0.32348313739E+01
 0.35310617924E+01 0.39112890881E+01 0.43585709266E+01 0.49232348664E+01 0.58719647866E+01
 0.73885753675E+01 0.15785455054E+02 0.19883592456E+02 0.23687998102E+02 0.26625631884E+02
 0.28226629723E+02 0.28226626707E+02 0.26625611203E+02 0.23687939279E+02 0.19883491144E+02
 0.15785330657E+02 0.11949158983E+02 0.88017130900E+01 0.65604223373E+01 0.51986710223E+01
 0.44627953549E+01 0.39642830230E+01 0.35490206823E+01 0.32336377349E+01 0.30167516361E+01
 0.28851694910E+01 0.28239969714E+01 0.28239774214E+01 0.28851143806E+01 0.30166598302E+01
 0.32334905836E+01 0.35487998818E+01 0.39640084878E+01 0.44625405434E+01 0.51985155121E+01
 0.65603886931E+01 0.88017748734E+01 0.11949272607E+02 0.25872320405E+02 0.31742044897E+02
 0.36697394330E+02 0.40012273677E+02 0.41178130982E+02 0.40012220190E+02 0.36697315000E+02
 0.31741975979E+02 0.25872281967E+02 0.19883516402E+02 0.14487410111E+02 0.10186599693E+02
 0.71973657778E+01 0.54305987096E+01 0.45320763146E+01 0.39914511054E+01 0.35551348857E+01
 0.32336564111E+01 0.30229036280E+01 0.29067611418E+01 0.28700288505E+01 0.29067191675E+01
 0.30228062652E+01 0.32334831392E+01 0.35548772820E+01 0.39911387880E+01 0.45317865294E+01
 0.54304041918E+01 0.71972757361E+01 0.10186575199E+02 0.14487410025E+02 0.19883529573E+02
 0.40023012080E+02 0.47518881225E+02 0.53216065784E+02 0.56294179961E+02 0.56294121325E+02
 0.53215930299E+02 0.47518755260E+02 0.40022959641E+02 0.31741986103E+02 0.23687969944E+02
 0.16695324807E+02 0.11294103409E+02 0.76486289216E+01 0.55641695441E+01 0.45567904100E+01
 0.39914332419E+01 0.35490273261E+01 0.32349682693E+01 0.30416001767E+01 0.29512707971E+01
 0.29512498512E+01 0.30415234791E+01 0.32348104449E+01 0.35487824814E+01 0.39911319893E+01
 0.45564972001E+01 0.55639382987E+01 0.76484652013E+01 0.11293984513E+02 0.16695227960E+02
 0.23687894453E+02 0.31741958857E+02 0.57901870428E+02 0.66550039456E+02 0.72289709537E+02
 0.74301052609E+02 0.72289623675E+02 0.66549921167E+02 0.57901785078E+02 0.47518751704E+02
 0.36697315051E+02 0.26625625627E+02 0.18199216205E+02 0.11909637734E+02 0.78117832114E+01
 0.55641911925E+01 0.45320590100E+01 0.39642463581E+01 0.35312233170E+01 0.32381742224E+01
 0.30739188748E+01 0.30215982175E+01 0.30738600082E+01 0.32380500942E+01 0.35310281433E+01
 0.39639874317E+01 0.45317735431E+01 0.55639275652E+01 0.78115631607E+01 0.11909463208E+02
 0.18199081531E+02 0.26625528952E+02 0.36697266561E+02 0.47518768935E+02 0.78483452466E+02
 0.87492125143E+02 0.92342128929E+02 0.92342134642E+02 0.87492134614E+02 0.78483451865E+02
 0.66549910074E+02 0.53215905982E+02 0.40012190380E+02 0.28226609388E+02 0.18732643081E+02
 0.11909645862E+02 0.76486872205E+01 0.54306421882E+01 0.44627644781E+01 0.39114562699E+01
 0.35034422380E+01 0.32448794186E+01 0.31222149074E+01 0.31221762694E+01 0.32447744420E+01
 0.35032876379E+01 0.39112531752E+01 0.44625149656E+01 0.54303732313E+01 0.76484331022E+01
 0.11909441652E+02 0.18732509692E+02 0.28226545664E+02 0.40012178128E+02 0.53215919266E+02
 0.66549924003E+02 0.10008305329E+03 0.10841384348E+03 0.11132935685E+03 0.10841392734E+03
 0.10008317086E+03 0.87492124073E+02 0.72289588525E+02 0.56294058916E+02 0.41178059274E+02
 0.28226576449E+02 0.18199178610E+02 0.11294135691E+02 0.71974510780E+01 0.51986960407E+01
 0.43587390807E+01 0.38365001161E+01 0.34689328347E+01 0.32580672683E+01 0.31901618624E+01
 0.32579946996E+01 0.34688050920E+01 0.38363315183E+01 0.43585346342E+01 0.51984688601E+01
 0.71972164178E+01 0.11293923791E+02 0.18199029534E+02 0.28226512563E+02 0.41178062518E+02
 0.56294075858E+02 0.72289563175E+02 0.87492036496E+02 0.12051614325E+03 0.12702399565E+03
 0.12702404132E+03 0.12051625888E+03 0.10841392315E+03 0.92342103300E+02 0.74300977224E+02
 0.56294069704E+02 0.40012161024E+02 0.26625548894E+02 0.16695294039E+02 0.10186668850E+02
 0.65604969603E+01 0.49233582461E+01 0.42239230542E+01 0.37450313648E+01 0.34325622429E+01
 0.32819191852E+01 0.32818884061E+01 0.34324762772E+01 0.37449028039E+01 0.42237626072E+01
 0.49231809651E+01 0.65603122159E+01 0.10186486259E+02 0.16695135688E+02 0.26625438553E+02
 0.40012100950E+02 0.56294030895E+02 0.74300916998E+02 0.92341997824E+02 0.10841378838E+03
 0.13739873988E+03 0.14102832841E+03 0.13739879419E+03 0.12702404401E+03 0.11132933803E+03
 0.92342060079E+02 0.72289584927E+02 0.53215912511E+02 0.36697253782E+02 0.23687896142E+02
 0.14487433262E+02 0.88018146164E+01 0.58720179254E+01 0.46534652966E+01 0.40630517257E+01
 0.36448126609E+01 0.34002912422E+01 0.33208481979E+01 0.34002437514E+01 0.36447343355E+01
 0.40629539062E+01 0.46533491307E+01 0.58718855083E+01 0.88016734546E+01 0.14487296410E+02
 0.23687769344E+02 0.36697133312E+02 0.53215796416E+02 0.72289477018E+02 0.92341961084E+02
 0.11132924356E+03 0.12702395859E+03 0.14855704775E+03 0.14855706245E+03 0.14102833387E+03
 0.12702398923E+03 0.10841379336E+03 0.87492010939E+02 0.66549873845E+02 0.47518704218E+02
 0.31741894570E+02 0.19883480601E+02 0.11949242565E+02 0.73885589097E+01 0.52537864658E+01
 0.44031860668E+01 0.38874568531E+01 0.35448293468E+01 0.33780030064E+01 0.33779869705E+01
 0.35447920888E+01 0.38874143255E+01 0.44031375487E+01 0.52537229486E+01 0.73884793619E+01
 0.11949158149E+02 0.19883396772E+02 0.31741802490E+02 0.47518599303E+02 0.66549771923E+02
 0.87491933354E+02 0.10841374175E+03 0.12702394872E+03 0.14102829957E+03 0.14855705567E+03
 0.14102831788E+03 0.12702397754E+03 0.10841378139E+03 0.87491982347E+02 0.66549826120E+02
 0.47518652616E+02 0.31741848853E+02 0.19883432168E+02 0.11949181664E+02 0.73884928548E+01
 0.52537296860E+01 0.44031406441E+01 0.38874158232E+01 0.35447930253E+01 0.33779876721E+01
 0.33780034795E+01 0.35448294927E+01 0.38874563357E+01 0.44031838935E+01 0.52537804827E+01
 0.73885454610E+01 0.11949217206E+02 0.19883439823E+02 0.31741837817E+02 0.47518635185E+02
 0.66549800184E+02 0.87491942195E+02 0.10841373792E+03 0.12702395174E+03 0.14102831449E+03
 0.14855705835E+03 0.14102831462E+03 0.13036297102E+03 0.11423783810E+03 0.94744015464E+02
 0.74171726296E+02 0.54614162908E+02 0.37677699484E+02 0.24329547571E+02 0.14870813112E+02
 0.90033923237E+01 0.59617312269E+01 0.46922010890E+01 0.40928025283E+01 0.36695796406E+01
 0.34215025010E+01 0.33408393336E+01 0.34215480231E+01 0.36696560869E+01 0.40928984279E+01
 0.46923106030E+01 0.59618470239E+01 0.90035045239E+01 0.14870908796E+02 0.24329620079E+02
 0.37677749611E+02 0.54614192246E+02 0.74171738613E+02 0.94744024741E+02 0.11423786295E+03
 0.13036301309E+03 0.14102834948E+03 0.14476069849E+03 0.12702398514E+03 0.11423785420E+03
 0.97278986351E+02 0.78268446922E+02 0.59316168332E+02 0.42187688543E+02 0.28093440249E+02
 0.17607691778E+02 0.10693287634E+02 0.68012647696E+01 0.50234340323E+01 0.42855419034E+01
 0.37966093230E+01 0.34755295785E+01 0.33202149654E+01 0.33202475120E+01 0.34756191676E+01
 0.37967405684E+01 0.42857022722E+01 0.50236060699E+01 0.68014353883E+01 0.10693442220E+02
 0.17607808006E+02 0.28093499456E+02 0.42187692661E+02 0.59316146722E+02 0.78268444678E+02
 0.97279036926E+02 0.11423795257E+03 0.12702408451E+03 0.13390533999E+03 0.13390529807E+03
 0.10841382849E+03 0.94744074138E+02 0.78268487123E+02 0.60962361209E+02 0.44622812210E+02
 0.30613640623E+02 0.19731155246E+02 0.12181585221E+02 0.76432564323E+01 0.53889360631E+01
 0.44531285411E+01 0.39155349722E+01 0.35337196512E+01 0.33132596958E+01 0.32421018337E+01
 0.33133424752E+01 0.35338606311E+01 0.39157141495E+01 0.44533387045E+01 0.53891620900E+01
 0.76434756253E+01 0.12181757123E+02 0.19731238155E+02 0.30613621826E+02 0.44622724581E+02
 0.60962274119E+02 0.78268472794E+02 0.94744161704E+02 0.10841397523E+03 0.11747146127E+03
 0.12064371171E+03 0.11747134911E+03 0.87492088855E+02 0.74171837488E+02 0.59316252731E+02
 0.44622853229E+02 0.31500212223E+02 0.20891004188E+02 0.13202425278E+02 0.83271800674E+01
 0.57320890194E+01 0.45970783365E+01 0.40169545898E+01 0.35891617851E+01 0.33154121649E+01
 0.31848846998E+01 0.31849307884E+01 0.33155348779E+01 0.35893353072E+01 0.40171718733E+01
 0.45973347000E+01 0.57323601831E+01 0.83274260101E+01 0.13202592110E+02 0.20891052208E+02
 0.31500145011E+02 0.44622725185E+02 0.59316147910E+02 0.74171824420E+02 0.87492173458E+02
 0.97566322854E+02 0.10299699312E+03 0.10299694041E+03 0.97566207840E+02 0.66549983030E+02
 0.54614309777E+02 0.42187800156E+02 0.30613708501E+02 0.20891033289E+02 0.13565664508E+02
 0.87106106824E+01 0.59786661101E+01 0.47108468428E+01 0.40937086765E+01 0.36357153477E+01
 0.33218593817E+01 0.31446609976E+01 0.30880685246E+01 0.31447340747E+01 0.33220019012E+01
 0.36359238533E+01 0.40939760069E+01 0.47111415431E+01 0.59789485311E+01 0.87108459256E+01
 0.13565815833E+02 0.20891078528E+02 0.30613662254E+02 0.42187711785E+02 0.54614233148E+02
 0.66549945195E+02 0.76508403784E+02 0.83128132142E+02 0.85450030723E+02 0.83128126357E+02
 0.76508408864E+02 0.47518826511E+02 0.37677852385E+02 0.28093558055E+02 0.19731235652E+02
 0.13202471978E+02 0.87106295971E+01 0.60684975356E+01 0.47751806425E+01 0.41412831134E+01
 0.36689032122E+01 0.33287007439E+01 0.31174597515E+01 0.30183663345E+01 0.30183934206E+01
 0.31175517730E+01 0.33288761362E+01 0.36691627803E+01 0.41415962588E+01 0.47754860569E+01
 0.60687509377E+01 0.87108165371E+01 0.13202590173E+02 0.19731291307E+02 0.28093564676E+02
 0.37677819652E+02 0.47518754772E+02 0.56431244712E+02 0.63213219675E+02 0.66881287624E+02
 0.66881328447E+02 0.63213317116E+02 0.56431347338E+02 0.31742007714E+02 0.24329687298E+02
 0.17607805678E+02 0.12181669971E+02 0.83272340652E+01 0.59786923824E+01 0.47751888611E+01
 0.41573760104E+01 0.36860862773E+01 0.33335329459E+01 0.31004389504E+01 0.29714749355E+01
 0.29306563361E+01 0.29715266757E+01 0.31005600258E+01 0.33337420732E+01 0.36863801241E+01
 0.41577115567E+01 0.47754858641E+01 0.59788980088E+01 0.83273504101E+01 0.12181729087E+02
 0.17607834462E+02 0.24329688271E+02 0.31741967955E+02 0.38988375529E+02 0.45103118398E+02
 0.49195058329E+02 0.50634801081E+02 0.49195126110E+02 0.45103217091E+02 0.38988458139E+02
 0.19883566122E+02 0.14870938360E+02 0.10693395406E+02 0.76433371780E+01 0.57321382604E+01
 0.47108710661E+01 0.41412968250E+01 0.36860950130E+01 0.33352501014E+01 0.30921733976E+01
 0.29443599846E+01 0.28756769526E+01 0.28757000026E+01 0.29444310397E+01 0.30923032826E+01
 0.33354583299E+01 0.36863855432E+01 0.41416259146E+01 0.47111474814E+01 0.57322978886E+01
 0.76433824204E+01 0.10693366688E+02 0.14870874503E+02 0.19883491165E+02 0.25191810890E+02
 0.30098263367E+02 0.33879847284E+02 0.35939501700E+02 0.35939506104E+02 0.33879867253E+02
 0.30098308692E+02 0.25191878653E+02 0.11949297530E+02 0.90035049752E+01 0.68013587777E+01
 0.53890005717E+01 0.45971163466E+01 0.40937370555E+01 0.36689293175E+01 0.33335494692E+01
 0.30921780177E+01 0.29354722880E+01 0.28492442859E+01 0.28219621921E+01 0.28492848568E+01
 0.29355453879E+01 0.30922868591E+01 0.33337147751E+01 0.36691642192E+01 0.40940126728E+01
 0.45973542539E+01 0.53891271740E+01 0.68013521389E+01 0.90033911772E+01 0.11949133352E+02
 0.15375691845E+02 0.18848849976E+02 0.21849618021E+02 0.23886432271E+02 0.24607857028E+02
 0.23886425158E+02 0.21849640675E+02 0.18848937666E+02 0.15375840960E+02 0.73885918542E+01
 0.59618218047E+01 0.50235022571E+01 0.44531757961E+01 0.40169976279E+01 0.36357573384E+01
 0.33287310954E+01 0.31004512303E+01 0.29443586746E+01 0.28492396276E+01 0.28047067717E+01
 0.28047337420E+01 0.28493056067E+01 0.29444345547E+01 0.31005247656E+01 0.33288211734E+01
 0.36358945042E+01 0.40171846877E+01 0.44533610374E+01 0.50236042581E+01 0.59617910090E+01
 0.73884373774E+01 0.92568983890E+01 0.11363751061E+02 0.13395940870E+02 0.15005541160E+02
 0.15895615470E+02 0.15895629007E+02 0.15005597762E+02 0.13396068195E+02 0.11363947816E+02
 0.92571138256E+01 0.52538009274E+01 0.46922616127E+01 0.42855944312E+01 0.39155903574E+01
 0.35892153357E+01 0.33218980986E+01 0.31174755738E+01 0.29714707554E+01 0.28756630096E+01
 0.28219484376E+01 0.28047255770E+01 0.28220129051E+01 0.28757604128E+01 0.29715586879E+01
 0.31175306939E+01 0.33219336928E+01 0.35892680951E+01 0.39156820042E+01 0.42857000343E+01
 0.46923173090E+01 0.52537581429E+01 0.60657580215E+01 0.71030554880E+01 0.82337617539E+01
 0.92608287873E+01 0.99798558189E+01 0.10238330367E+02 0.99799375744E+01 0.92609824292E+01
 0.82339612541E+01 0.71032545815E+01 0.60658998183E+01 0.44031890360E+01 0.40928592524E+01
 0.37966726410E+01 0.35337784786E+01 0.33154529361E+01 0.31446761713E+01 0.30183582290E+01
 0.29306342443E+01 0.28756738619E+01 0.28492608073E+01 0.28492862822E+01 0.28757483353E+01
 0.29307443076E+01 0.30184718058E+01 0.31447567353E+01 0.33154856634E+01 0.35337781008E+01
 0.37966636887E+01 0.40928517467E+01 0.44031723998E+01 0.47296861432E+01 0.51343413605E+01
 0.56219395306E+01 0.61283366645E+01 0.65520414404E+01 0.67940559683E+01 0.67941067078E+01
 0.65521691461E+01 0.61284873726E+01 0.56220671772E+01 0.51344268515E+01 0.47297311160E+01
 0.38874749514E+01 0.36696451915E+01 0.34755879569E+01 0.33132987849E+01 0.31848985762E+01
 0.30880590074E+01 0.30183675595E+01 0.29714922190E+01 0.29443931827E+01 0.29355067598E+01
 0.29443976486E+01 0.29715280575E+01 0.30184537952E+01 0.30881773053E+01 0.31850006179E+01
 0.33133400439E+01 0.34755549364E+01 0.36695584183E+01 0.38873730868E+01 0.41155600825E+01
 0.43376069475E+01 0.45427087038E+01 0.47426550241E+01 0.49261122109E+01 0.50588473943E+01
 0.51076010407E+01 0.50589007646E+01 0.49261859555E+01 0.47427170493E+01 0.45427567210E+01
 0.43376633055E+01 0.41156434649E+01 0.35448547066E+01 0.34215571030E+01 0.33202530304E+01
 0.32421187428E+01 0.31849267879E+01 0.31447123614E+01 0.31175159720E+01 0.31005127654E+01
 0.30922466904E+01 0.30922242978E+01 0.31004621421E+01 0.31174759631E+01 0.31447175466E+01
 0.31849813839E+01 0.32421897639E+01 0.33202897912E+01 0.34215236574E+01 0.35447509139E+01
 0.36845952741E+01 0.38318917948E+01 0.39753298081E+01 0.41036200200E+01 0.42073138046E+01
 0.42797029902E+01 0.43169852506E+01 0.43169860899E+01 0.42797111614E+01 0.42073432522E+01
 0.41036855145E+01 0.39754377902E+01 0.38320320748E+01 0.36847379239E+01 0.33780377225E+01
 0.33408799270E+01 0.33202739023E+01 0.33133516945E+01 0.33155249529E+01 0.33219713587E+01
 0.33288243268E+01 0.33336702915E+01 0.33353710480E+01 0.33336200131E+01 0.33287293707E+01
 0.33218552526E+01 0.33154281188E+01 0.33133060182E+01 0.33202764641E+01 0.33408941854E+01
 0.33780197296E+01 0.34316240410E+01 0.34983622138E+01 0.35721169278E+01 0.36452996760E+01
 0.37103881847E+01 0.37611460166E+01 0.37932194099E+01 0.38041659596E+01 0.37932267545E+01
 0.37611867756E+01 0.37104850359E+01 0.36454455135E+01 0.35722764237E+01 0.34984936509E+01
 0.34316999233E+01 0.33780497518E+01 0.34215874407E+01 0.34756443889E+01 0.35338644073E+01
 0.35893116998E+01 0.36358696472E+01 0.36690787373E+01 0.36862716406E+01 0.36862623093E+01
 0.36690387126E+01 0.36357795570E+01 0.35891741770E+01 0.35337111467E+01 0.34755153530E+01
 0.34215066545E+01 0.33780166294E+01 0.33493278634E+01 0.33367030318E+01 0.33382865757E+01
 0.33498921555E+01 0.33663285594E+01 0.33827344356E+01 0.33954597000E+01 0.34023112391E+01
 0.34023348539E+01 0.33955319208E+01 0.33828491070E+01 0.33664583437E+01 0.33499974626E+01
 0.33383431052E+01 0.33367189264E+01 0.33493350542E+01 0.35448797695E+01 0.36696928358E+01
 0.37967531847E+01 0.39156947825E+01 0.40171166341E+01 0.40938855034E+01 0.41414756946E+01
 0.41575703880E+01 0.41414768161E+01 0.40938696493E+01 0.40170605740E+01 0.39155860206E+01
 0.37965998199E+01 0.36695250482E+01 0.35447416083E+01 0.34316290244E+01 0.33367109716E+01
 0.32626627617E+01 0.32085376460E+01 0.31710094323E+01 0.31460248304E+01 0.31301724167E+01
 0.31213131544E+01 0.31184663462E+01 0.31213701306E+01 0.31302570677E+01 0.31460920594E+01
 0.31710242221E+01 0.32085006484E+01 0.32626143379E+01 0.33367056993E+01 0.34316994045E+01
 0.38874965358E+01 0.40929145296E+01 0.42856891590E+01 0.44532942605E+01 0.45972573528E+01
 0.47110322726E+01 0.47753505427E+01 0.47753342086E+01 0.47109929707E+01 0.45972115316E+01
 0.44532433699E+01 0.42856161430E+01 0.40928039959E+01 0.38873579513E+01 0.36846047791E+01
 0.34983855407E+01 0.33383117849E+01 0.32085538716E+01 0.31084856223E+01 0.30346222924E+01
 0.29828186337E+01 0.29498050830E+01 0.29336892045E+01 0.29336999614E+01 0.29498184554E+01
 0.29827979783E+01 0.30345524120E+01 0.31083920879E+01 0.32084869327E+01 0.33383130277E+01