fcc Ni                                  
   3.53000000000000     
     0.500000    0.500000    0.000000
     0.000000    0.500000    0.500000
     0.500000    0.000000    0.500000
   Ni
     1
Direct
  0.000000  0.000000  0.000000
 
   32   32   32
 0.15245934681E+03 0.14855583129E+03 0.13739757676E+03 0.12051501146E+03 0.10008192303E+03
 0.78482343270E+02 0.57900859126E+02 0.40022180138E+02 0.25871696388E+02 0.15785013993E+02
 0.94746031553E+01 0.61639841131E+01 0.47715484190E+01 0.41467169365E+01 0.37107934248E+01
 0.34541289747E+01 0.33704872914E+01 0.34541289667E+01 0.37107934013E+01 0.41467168866E+01
 0.47715483322E+01 0.61639839747E+01 0.94746029357E+01 0.15785013642E+02 0.25871695844E+02
 0.40022179361E+02 0.57900858138E+02 0.78482342169E+02 0.10008192197E+03 0.12051501059E+03
 0.13739757615E+03 0.14855583099E+03 0.14855583643E+03 0.14102716447E+03 0.12702287987E+03
 0.10841271308E+03 0.87490948333E+02 0.66548880853E+02 0.47517867736E+02 0.31741262679E+02
 0.19883032270E+02 0.11948936622E+02 0.73883977092E+01 0.52538099903E+01 0.44033876722E+01
 0.38877445146E+01 0.35451859745E+01 0.33784275364E+01 0.33784334702E+01 0.35451973269E+01
 0.38877535087E+01 0.44033987478E+01 0.52538297592E+01 0.73884200210E+01 0.11948951434E+02
 0.19883050595E+02 0.31741314304E+02 0.47517961913E+02 0.66548979270E+02 0.87490992422E+02
 0.10841267843E+03 0.12702279634E+03 0.14102708677E+03 0.14855580593E+03 0.13739759859E+03
 0.12702289816E+03 0.11132822824E+03 0.92340972066E+02 0.72288547325E+02 0.53214995941E+02
 0.36696517458E+02 0.23687342298E+02 0.14487024943E+02 0.88015352262E+01 0.58718977459E+01
 0.46535323096E+01 0.40632469710E+01 0.36450922605E+01 0.34006630439E+01 0.33212828472E+01
 0.34006727653E+01 0.36451093310E+01 0.40632736857E+01 0.46535712634E+01 0.58719404928E+01
 0.88015674951E+01 0.14487048495E+02 0.23687386056E+02 0.36696610541E+02 0.53215125743E+02
 0.72288654964E+02 0.92340998473E+02 0.11132816509E+03 0.12702279441E+03 0.13739752354E+03
 0.14102710150E+03 0.12051506216E+03 0.10841276208E+03 0.92341002491E+02 0.74299967510E+02
 0.56293183522E+02 0.40011415368E+02 0.26624936098E+02 0.16694795251E+02 0.10186281022E+02
 0.65602470609E+01 0.49232813637E+01 0.42239995114E+01 0.37452080686E+01 0.34328543298E+01
 0.32823141879E+01 0.32823178772E+01 0.34328692475E+01 0.37452415647E+01 0.42240530750E+01
 0.49233441260E+01 0.65603051939E+01 0.10186329602E+02 0.16694841897E+02 0.26624994863E+02
 0.40011493102E+02 0.56293268495E+02 0.74300031882E+02 0.92341021145E+02 0.10841273476E+03
 0.12051501857E+03 0.12702281544E+03 0.12702283598E+03 0.10008200979E+03 0.87491032221E+02
 0.72288609767E+02 0.56293213810E+02 0.41177339476E+02 0.28225952010E+02 0.18198621795E+02
 0.11293649533E+02 0.71970780190E+01 0.51984897637E+01 0.43587047369E+01 0.38365725886E+01
 0.34691188537E+01 0.32583861985E+01 0.31905706225E+01 0.32584036303E+01 0.34691507145E+01
 0.38366190270E+01 0.43587689291E+01 0.51985690479E+01 0.71971638783E+01 0.11293730139E+02
 0.18198689492E+02 0.28226007665E+02 0.41177388163E+02 0.56293257692E+02 0.72288646382E+02
 0.87491058385E+02 0.10008202514E+03 0.10841275828E+03 0.11132821411E+03 0.10841275160E+03
 0.78482461390E+02 0.66548990297E+02 0.53215078828E+02 0.40011464117E+02 0.28225970841E+02
 0.18732065479E+02 0.11909117910E+02 0.76482398786E+01 0.54303364693E+01 0.44626312406E+01
 0.39114407275E+01 0.35035313035E+01 0.32451064310E+01 0.31225705894E+01 0.31225833747E+01
 0.32451376484E+01 0.35035709454E+01 0.39114920006E+01 0.44627038546E+01 0.54304282073E+01
 0.76483372460E+01 0.11909207769E+02 0.18732145827E+02 0.28226044827E+02 0.40011526877E+02
 0.53215117554E+02 0.66548998173E+02 0.78482446889E+02 0.87491080784E+02 0.92341071201E+02
 0.92341079366E+02 0.87491099733E+02 0.57900990811E+02 0.47517982657E+02 0.36696601936E+02
 0.26624987327E+02 0.18198646206E+02 0.11909125674E+02 0.78113428543E+01 0.55638603430E+01
 0.45318630329E+01 0.39641501810E+01 0.35312240548E+01 0.32383213303E+01 0.30742174878E+01
 0.30219815332E+01 0.30742326774E+01 0.32383553758E+01 0.35312784290E+01 0.39642198797E+01
 0.45319370420E+01 0.55639310341E+01 0.78114145653E+01 0.11909207273E+02 0.18198741432E+02
 0.26625086508E+02 0.36696678452E+02 0.47518003021E+02 0.57900940863E+02 0.66549016586E+02
 0.72288690396E+02 0.74300107617E+02 0.72288762430E+02 0.66549108566E+02 0.40022301970E+02
 0.31741362367E+02 0.23687412493E+02 0.16694837465E+02 0.11293670797E+02 0.76482483645E+01
 0.55638625949E+01 0.45565773241E+01 0.39912899680E+01 0.35489604197E+01 0.32350432053E+01
 0.30418420931E+01 0.29516280608E+01 0.29516312404E+01 0.30418607785E+01 0.32350918923E+01
 0.35490375799E+01 0.39913753749E+01 0.45566476427E+01 0.55639115628E+01 0.76482903871E+01
 0.11293723902E+02 0.16694908734E+02 0.23687489383E+02 0.31741412285E+02 0.40022290400E+02
 0.47518015527E+02 0.53215150586E+02 0.56293318761E+02 0.56293360589E+02 0.53215243486E+02
 0.47518091237E+02 0.25871790950E+02 0.19883105371E+02 0.14487074595E+02 0.10186310523E+02
 0.71970930478E+01 0.54303428191E+01 0.45318654943E+01 0.39912913377E+01 0.35550488584E+01
 0.32336996027E+01 0.30230992859E+01 0.29070822995E+01 0.28704124356E+01 0.29070944969E+01
 0.30231285955E+01 0.32337554891E+01 0.35551365725E+01 0.39913976945E+01 0.45319565463E+01
 0.54303901073E+01 0.71971014244E+01 0.10186309456E+02 0.14487087717E+02 0.19883130282E+02
 0.25871807940E+02 0.31741417964E+02 0.36696697862E+02 0.40011567891E+02 0.41177455401E+02
 0.40011584736E+02 0.36696717317E+02 0.31741422143E+02 0.15785076726E+02 0.11948983461E+02
 0.88015664233E+01 0.65602652928E+01 0.51984989796E+01 0.44626359927E+01 0.39641543395E+01
 0.35489639134E+01 0.32337010510E+01 0.30169428952E+01 0.28854654404E+01 0.28243631888E+01
 0.28243698228E+01 0.28854815101E+01 0.30169676135E+01 0.32337488041E+01 0.35490505930E+01
 0.39642697334E+01 0.44627391309E+01 0.51985510483E+01 0.65602631418E+01 0.88015343037E+01
 0.11948947914E+02 0.15785055229E+02 0.19883129275E+02 0.23687494744E+02 0.26625105914E+02
 0.28226083718E+02 0.28226066729E+02 0.26625069041E+02 0.23687465997E+02 0.19883126009E+02
 0.94746398073E+01 0.73884247624E+01 0.58719153865E+01 0.49232915685E+01 0.43587113278E+01
 0.39114476105E+01 0.35312306288E+01 0.32350471807E+01 0.30231002159E+01 0.28854649504E+01
 0.28094693374E+01 0.27853441701E+01 0.28094821009E+01 0.28854804312E+01 0.30231140049E+01
 0.32350710456E+01 0.35312830407E+01 0.39115330539E+01 0.43588085563E+01 0.49233632475E+01
 0.58719346618E+01 0.73883898430E+01 0.94745755296E+01 0.11948941444E+02 0.14487080704E+02
 0.16694908206E+02 0.18198753239E+02 0.18732172491E+02 0.18198729279E+02 0.16694889628E+02
 0.14487097643E+02 0.11948996292E+02 0.61640030986E+01 0.52538238630E+01 0.46535416641E+01
 0.42240074804E+01 0.38365817120E+01 0.35035399784E+01 0.32383267860E+01 0.30418433429E+01
 0.29070806844E+01 0.28243609096E+01 0.27853427235E+01 0.27853542178E+01 0.28243872172E+01
 0.29071039205E+01 0.30418513277E+01 0.32383255354E+01 0.35035513855E+01 0.38366250871E+01
 0.42240787637E+01 0.46536096100E+01 0.52538531702E+01 0.61639795443E+01 0.73883800162E+01
 0.88015184327E+01 0.10186293294E+02 0.11293713274E+02 0.11909206072E+02 0.11909216877E+02
 0.11293747716E+02 0.10186352324E+02 0.88015918339E+01 0.73884429288E+01 0.47715569598E+01
 0.44033954717E+01 0.40632560943E+01 0.37452185697E+01 0.34691282880E+01 0.32451120432E+01
 0.30742182540E+01 0.29516251255E+01 0.28704079631E+01 0.28243655163E+01 0.28094786689E+01
 0.28243850201E+01 0.28704459779E+01 0.29516705690E+01 0.30742506662E+01 0.32451185469E+01
 0.34691175348E+01 0.37452129902E+01 0.40632705834E+01 0.44034252452E+01 0.47715833054E+01
 0.52538424185E+01 0.58719145591E+01 0.65602375072E+01 0.71970753338E+01 0.76482684604E+01
 0.78113996609E+01 0.76483301472E+01 0.71971638013E+01 0.65603104721E+01 0.58719489905E+01
 0.52538391833E+01 0.41467241357E+01 0.38877544939E+01 0.36451031784E+01 0.34328634408E+01
 0.32583911770E+01 0.31225706696E+01 0.30219776464E+01 0.29516251421E+01 0.29070876407E+01
 0.28854745423E+01 0.28854735859E+01 0.29070978217E+01 0.29516666320E+01 0.30220461437E+01
 0.31226343914E+01 0.32584191102E+01 0.34328503525E+01 0.36450679759E+01 0.38877227452E+01
 0.41467137685E+01 0.44034155394E+01 0.46535897070E+01 0.49233348016E+01 0.51985176142E+01
 0.54303560776E+01 0.55638808969E+01 0.55639064301E+01 0.54304109059E+01 0.51985590042E+01
 0.49233402759E+01 0.46535719735E+01 0.44034027445E+01 0.37108033984E+01 0.35451963987E+01
 0.34006714515E+01 0.32823188492E+01 0.31905709832E+01 0.31225799286E+01 0.30742263590E+01
 0.30418523175E+01 0.30231182989E+01 0.30169557044E+01 0.30231012035E+01 0.30418391588E+01
 0.30742411656E+01 0.31226293182E+01 0.31906377137E+01 0.32823727307E+01 0.34006882164E+01
 0.35451718451E+01 0.37107548354E+01 0.38877151961E+01 0.40632538506E+01 0.42240528575E+01
 0.43587752891E+01 0.44627017999E+01 0.45319191258E+01 0.45566138222E+01 0.45319095247E+01
 0.44626840523E+01 0.43587570447E+01 0.42240485737E+01 0.40632756341E+01 0.38877604918E+01
 0.34541380721E+01 0.33784354284E+01 0.33212882920E+01 0.32823202181E+01 0.32584025768E+01
 0.32451329739E+01 0.32383467586E+01 0.32350790573E+01 0.32337386094E+01 0.32337289111E+01
 0.32350501344E+01 0.32383061983E+01 0.32451032343E+01 0.32584093358E+01 0.32823685616E+01
 0.33213537680E+01 0.33784813152E+01 0.34541409564E+01 0.35451671051E+01 0.36450561055E+01
 0.37451928698E+01 0.38365972140E+01 0.39114995342E+01 0.39642338567E+01 0.39913631949E+01
 0.39913456198E+01 0.39641972454E+01 0.39114775823E+01 0.38366126701E+01 0.37452421032E+01
 0.36451149113E+01 0.35452057562E+01 0.33704950372E+01 0.33784406595E+01 0.34006782672E+01
 0.34328717635E+01 0.34691488135E+01 0.35035632837E+01 0.35312641370E+01 0.35490167011E+01
 0.35551103629E+01 0.35490214948E+01 0.35312542499E+01 0.35035261096E+01 0.34690981856E+01
 0.34328379532E+01 0.34006822037E+01 0.33784797398E+01 0.33705479159E+01 0.33784796809E+01
 0.34006820949E+01 0.34328378114E+01 0.34690980332E+01 0.35035259709E+01 0.35312541455E+01
 0.35490214376E+01 0.35551103539E+01 0.35490167293E+01 0.35312641833E+01 0.35035633275E+01
 0.34691488406E+01 0.34328717705E+01 0.34006782613E+01 0.33784406522E+01 0.34541380922E+01
 0.35452057678E+01 0.36451148930E+01 0.37452420394E+01 0.38366125592E+01 0.39114774406E+01
 0.39641971025E+01 0.39913455093E+01 0.39913631435E+01 0.39642338760E+01 0.39114996178E+01
 0.38365973407E+01 0.37451930096E+01 0.36450562279E+01 0.35451671857E+01 0.34541409810E+01
 0.33784812802E+01 0.33213536793E+01 0.32823684320E+01 0.32584091822E+01 0.32451030752E+01
 0.32383060512E+01 0.32350500122E+01 0.32337288203E+01 0.32337385488E+01 0.32350790188E+01
 0.32383467315E+01 0.32451329500E+01 0.32584025541E+01 0.32823202014E+01 0.33212882882E+01
 0.33784354400E+01 0.37108034329E+01 0.38877604891E+01 0.40632755647E+01 0.42240484241E+01
 0.43587568254E+01 0.44626837966E+01 0.45319092791E+01 0.45566136319E+01 0.45319190212E+01
 0.44627017891E+01 0.43587753569E+01 0.42240529721E+01 0.40632539738E+01 0.38877152935E+01
 0.37107548839E+01 0.35451718354E+01 0.34006881511E+01 0.32823726203E+01 0.31906375726E+01
 0.31226291617E+01 0.30742410077E+01 0.30418390106E+01 0.30231010719E+01 0.30169555916E+01
 0.30231182031E+01 0.30418522346E+01 0.30742262868E+01 0.31225798696E+01 0.31905709444E+01
 0.32823188386E+01 0.34006714710E+01 0.35451964379E+01 0.41467241742E+01 0.44034027085E+01
 0.46535718320E+01 0.49233400255E+01 0.51985586729E+01 0.54304105462E+01 0.55639061027E+01
 0.55638806530E+01 0.54303559449E+01 0.51985175916E+01 0.49233348625E+01 0.46535898103E+01
 0.44034156419E+01 0.41467138369E+01 0.38877227611E+01 0.36450679362E+01 0.34328502649E+01
 0.32584189879E+01 0.31226342486E+01 0.30220459928E+01 0.29516664825E+01 0.29070976793E+01
 0.28854734530E+01 0.28854744182E+01 0.29070875241E+01 0.29516250340E+01 0.30219775531E+01
 0.31225706027E+01 0.32583911496E+01 0.34328634594E+01 0.36451032352E+01 0.38877545623E+01
 0.47715569873E+01 0.52538390972E+01 0.58719487678E+01 0.65603101270E+01 0.71971633828E+01
 0.76483297237E+01 0.78113992996E+01 0.76482682085E+01 0.71970752080E+01 0.65602374931E+01
 0.58719146199E+01 0.52538425082E+01 0.47715833827E+01 0.44034252824E+01 0.40632705694E+01
 0.37452129273E+01 0.34691174339E+01 0.32451184215E+01 0.30742505286E+01 0.29516704284E+01
 0.28704458396E+01 0.28243848855E+01 0.28094785365E+01 0.28243653841E+01 0.28704078323E+01
 0.29516250035E+01 0.30742181559E+01 0.32451119882E+01 0.34691282913E+01 0.37452186320E+01
 0.40632561936E+01 0.44033955633E+01 0.61640030944E+01 0.73884427796E+01 0.88015915353E+01
 0.10186351914E+02 0.11293747261E+02 0.11909216453E+02 0.11909205740E+02 0.11293713066E+02
 0.10186293208E+02 0.88015184408E+01 0.73883800766E+01 0.61639796145E+01 0.52538532177E+01
 0.46536096164E+01 0.42240787248E+01 0.38366250088E+01 0.35035512786E+01 0.32383254118E+01
 0.30418511971E+01 0.29071037888E+01 0.28243870858E+01 0.27853540846E+01 0.27853425848E+01
 0.28243607641E+01 0.29070805381E+01 0.30418432114E+01 0.32383266929E+01 0.35035399481E+01
 0.38365817571E+01 0.42240075900E+01 0.46535417985E+01 0.52538239604E+01 0.94746397436E+01
 0.11948996071E+02 0.14487097289E+02 0.16694889201E+02 0.18198728856E+02 0.18732172140E+02
 0.18198752999E+02 0.16694908084E+02 0.14487080678E+02 0.11948941477E+02 0.94745755838E+01
 0.73883898876E+01 0.58719346778E+01 0.49233632266E+01 0.43588084990E+01 0.39115329661E+01
 0.35312829313E+01 0.32350709236E+01 0.30231138771E+01 0.28854803005E+01 0.28094819655E+01
 0.27853440254E+01 0.28094691797E+01 0.28854647818E+01 0.30231000495E+01 0.32350470412E+01
 0.35312305467E+01 0.39114476106E+01 0.43587114140E+01 0.49232917127E+01 0.58719155300E+01
 0.73884248323E+01 0.15785076571E+02 0.19883125715E+02 0.23687465617E+02 0.26625068652E+02
 0.28226066404E+02 0.28226083501E+02 0.26625105811E+02 0.23687494731E+02 0.19883129314E+02
 0.15785055283E+02 0.11948947957E+02 0.88015343217E+01 0.65602631301E+01 0.51985510065E+01
 0.44627390611E+01 0.39642696392E+01 0.35490504801E+01 0.32337486786E+01 0.30169674797E+01
 0.28854813684E+01 0.28243696693E+01 0.28243630182E+01 0.28854652510E+01 0.30169426952E+01
 0.32337008619E+01 0.35489637677E+01 0.39641542704E+01 0.44626360186E+01 0.51984990880E+01
 0.65602654350E+01 0.88015665264E+01 0.11948983455E+02 0.25871790678E+02 0.31741421786E+02
 0.36696716952E+02 0.40011584443E+02 0.41177455228E+02 0.40011567846E+02 0.36696697914E+02
 0.31741418065E+02 0.25871808042E+02 0.19883130355E+02 0.14487087752E+02 0.10186309455E+02
 0.71971013946E+01 0.54303900527E+01 0.45319564680E+01 0.39913975934E+01 0.35551364514E+01
 0.32337553524E+01 0.30231284458E+01 0.29070943330E+01 0.28704122525E+01 0.29070820929E+01
 0.30230990583E+01 0.32336993694E+01 0.35550486484E+01 0.39912911875E+01 0.45318654328E+01
 0.54303428489E+01 0.71970931343E+01 0.10186310600E+02 0.14487074589E+02 0.19883105234E+02
 0.40022301579E+02 0.47518090847E+02 0.53215243184E+02 0.56293360435E+02 0.56293318770E+02
 0.53215150725E+02 0.47518015735E+02 0.40022290610E+02 0.31741412449E+02 0.23687489482E+02
 0.16694908773E+02 0.11293723896E+02 0.76482903510E+01 0.55639115022E+01 0.45566475572E+01
 0.39913752640E+01 0.35490374455E+01 0.32350917381E+01 0.30418606065E+01 0.29516310486E+01
 0.29516278441E+01 0.30418418493E+01 0.32350429419E+01 0.35489601585E+01 0.39912897422E+01
 0.45565771670E+01 0.55638625208E+01 0.76482483531E+01 0.11293670794E+02 0.16694837399E+02
 0.23687412311E+02 0.31741362058E+02 0.57900990331E+02 0.66549108190E+02 0.72288762234E+02
 0.74300107628E+02 0.72288690591E+02 0.66549016900E+02 0.57900941215E+02 0.47518003337E+02
 0.36696678686E+02 0.26625086649E+02 0.18198741494E+02 0.11909207278E+02 0.78114145332E+01
 0.55639309713E+01 0.45319369490E+01 0.39642197565E+01 0.35312782789E+01 0.32383552032E+01
 0.30742324839E+01 0.30219813162E+01 0.30742172429E+01 0.32383210577E+01 0.35312237665E+01
 0.39641499023E+01 0.45318627949E+01 0.55638601659E+01 0.78113427291E+01 0.11909125557E+02
 0.18198646033E+02 0.26624987044E+02 0.36696601530E+02 0.47517982171E+02 0.78482460881E+02
 0.87491099426E+02 0.92341079307E+02 0.92341071381E+02 0.87491081150E+02 0.78482447362E+02
 0.66548998662E+02 0.53215117980E+02 0.40011527195E+02 0.28226045026E+02 0.18732145927E+02
 0.11909207797E+02 0.76483372232E+01 0.54304281441E+01 0.44627037544E+01 0.39114918667E+01
 0.35035707832E+01 0.32451374637E+01 0.31225831688E+01 0.31225703589E+01 0.32451061717E+01
 0.35035310180E+01 0.39114404301E+01 0.44626309550E+01 0.54303362157E+01 0.76482396546E+01
 0.11909117681E+02 0.18732065188E+02 0.28225970434E+02 0.40011463579E+02 0.53215078201E+02
 0.66548989675E+02 0.10008200932E+03 0.10841275141E+03 0.11132821420E+03 0.10841275861E+03
 0.10008202566E+03 0.87491059005E+02 0.72288647007E+02 0.56293258237E+02 0.41177388574E+02
 0.28226007932E+02 0.18198689636E+02 0.11293730191E+02 0.71971638662E+01 0.51985689864E+01
 0.43587688263E+01 0.38366188899E+01 0.34691505513E+01 0.32584034473E+01 0.31905704201E+01
 0.32583859721E+01 0.34691185994E+01 0.38365723096E+01 0.43587044465E+01 0.51984894771E+01
 0.71970777362E+01 0.11293649226E+02 0.18198621411E+02 0.28225951494E+02 0.41177338808E+02
 0.56293213030E+02 0.72288608975E+02 0.87491031539E+02 0.12051506180E+03 0.12702283591E+03
 0.12702281566E+03 0.12051501904E+03 0.10841273542E+03 0.92341021911E+02 0.74300032646E+02
 0.56293269157E+02 0.40011493602E+02 0.26624995189E+02 0.16694842077E+02 0.10186329675E+02
 0.65603051938E+01 0.49233440725E+01 0.42240529802E+01 0.37452414386E+01 0.34328691001E+01
 0.32823177144E+01 0.32823140085E+01 0.34328541278E+01 0.37452078394E+01 0.42239992572E+01
 0.49232810921E+01 0.65602467708E+01 0.10186280690E+02 0.16694794827E+02 0.26624935523E+02
 0.40011414612E+02 0.56293182619E+02 0.74299966558E+02 0.92341001627E+02 0.10841276143E+03
 0.13739759835E+03 0.14102710157E+03 0.13739752389E+03 0.12702279501E+03 0.11132816589E+03
 0.92340999383E+02 0.72288655854E+02 0.53215126499E+02 0.36696611101E+02 0.23687386418E+02
 0.14487048698E+02 0.88015675862E+01 0.58719405103E+01 0.46535712296E+01 0.40632736145E+01
 0.36451092341E+01 0.34006726529E+01 0.33212827237E+01 0.34006629061E+01 0.36450921008E+01
 0.40632467835E+01 0.46535320931E+01 0.58718974967E+01 0.88015349237E+01 0.14487024541E+02
 0.23687341736E+02 0.36696516693E+02 0.53214994984E+02 0.72288546264E+02 0.92340971045E+02
 0.11132822740E+03 0.12702289760E+03 0.14855583631E+03 0.14855580611E+03 0.14102708724E+03
 0.12702279708E+03 0.10841267938E+03 0.87490993456E+02 0.66548980245E+02 0.47517962713E+02
 0.31741314879E+02 0.19883050963E+02 0.11948951647E+02 0.73884201319E+01 0.52538298050E+01
 0.44033987490E+01 0.38877534782E+01 0.35451972765E+01 0.33784334092E+01 0.33784274672E+01
 0.35451858916E+01 0.38877444086E+01 0.44033875353E+01 0.52538098152E+01 0.73883974785E+01
 0.11948936297E+02 0.19883031791E+02 0.31741261990E+02 0.47517866822E+02 0.66548879774E+02
 0.87490947221E+02 0.10841271210E+03 0.12702287913E+03 0.14102716404E+03 0.14855583793E+03
 0.14102716552E+03 0.12702288016E+03 0.10841271279E+03 0.87490948039E+02 0.66548881281E+02
 0.47517869356E+02 0.31741265452E+02 0.19883035664E+02 0.11948939898E+02 0.73884002845E+01
 0.52538116654E+01 0.44033885957E+01 0.38877449811E+01 0.35451862296E+01 0.33784276869E+01
 0.33784335191E+01 0.35451972239E+01 0.38877531383E+01 0.44033978737E+01 0.52538280426E+01
 0.73884172408E+01 0.11948947651E+02 0.19883046146E+02 0.31741309652E+02 0.47517957479E+02
 0.66548975373E+02 0.87490989335E+02 0.10841267642E+03 0.12702279560E+03 0.14102708725E+03
 0.14855580724E+03 0.14102717876E+03 0.13036192131E+03 0.11423683419E+03 0.94743032437E+02
 0.74170794514E+02 0.54613354107E+02 0.37677072651E+02 0.24329109001E+02 0.14870529527E+02
 0.90032411005E+01 0.59617312437E+01 0.46923767298E+01 0.40930948730E+01 0.36699363922E+01
 0.34219175291E+01 0.33412680831E+01 0.34219252139E+01 0.36699522161E+01 0.40931219328E+01
 0.46924139920E+01 0.59617669593E+01 0.90032640811E+01 0.14870550431E+02 0.24329163479E+02
 0.37677186966E+02 0.54613504032E+02 0.74170909031E+02 0.94743047994E+02 0.11423674768E+03
 0.13036179264E+03 0.14102708806E+03 0.14475947393E+03 0.12702291697E+03 0.11423685920E+03
 0.97278028476E+02 0.78267530373E+02 0.59315345707E+02 0.42187020773E+02 0.28092949392E+02
 0.17607354481E+02 0.10693074775E+02 0.68011837464E+01 0.50235193749E+01 0.42857763280E+01
 0.37969159748E+01 0.34759035529E+01 0.33206303891E+01 0.33206338907E+01 0.34759179536E+01
 0.37969492137E+01 0.42858301562E+01 0.50235802205E+01 0.68012334624E+01 0.10693109365E+02
 0.17607393309E+02 0.28093021282E+02 0.42187133370E+02 0.59315467548E+02 0.78267607943E+02
 0.97278026875E+02 0.11423679122E+03 0.12702283624E+03 0.13390409403E+03 0.13390412918E+03
 0.10841278189E+03 0.94743090479E+02 0.78267562625E+02 0.60961526545E+02 0.44622112431E+02
 0.30613098058E+02 0.19730755578E+02 0.12181303068E+02 0.76430939968E+01 0.53889276714E+01
 0.44532836115E+01 0.39157767231E+01 0.35340318420E+01 0.33136414078E+01 0.32424934792E+01
 0.33136600949E+01 0.35340651410E+01 0.39158257556E+01 0.44533522635E+01 0.53890084101E+01
 0.76431694223E+01 0.12181359988E+02 0.19730800038E+02 0.30613148707E+02 0.44622177574E+02
 0.60961594033E+02 0.78267614277E+02 0.94743120264E+02 0.10841279625E+03 0.11747022614E+03
 0.12064250438E+03 0.11747022008E+03 0.87491050242E+02 0.74170883106E+02 0.59315405699E+02
 0.44622139134E+02 0.31499638949E+02 0.20890555637E+02 0.13202081377E+02 0.83269461342E+01
 0.57319999625E+01 0.45971543232E+01 0.40171294968E+01 0.35893984921E+01 0.33157334121E+01
 0.31852612186E+01 0.31852747679E+01 0.33157668611E+01 0.35894421805E+01 0.40171873702E+01
 0.45972350672E+01 0.57320987462E+01 0.83270443330E+01 0.13202159969E+02 0.20890609892E+02
 0.31499676951E+02 0.44622171849E+02 0.59315443587E+02 0.74170935659E+02 0.87491117119E+02
 0.97565157876E+02 0.10299579409E+03 0.10299576866E+03 0.97565096544E+02 0.66549004985E+02
 0.54613458600E+02 0.42187093565E+02 0.30613137726E+02 0.20890569969E+02 0.13565286999E+02
 0.87103299791E+01 0.59785233933E+01 0.47108689224E+01 0.40938373699E+01 0.36358881579E+01
 0.33221088753E+01 0.31449956632E+01 0.30884243524E+01 0.31450136679E+01 0.33221456825E+01
 0.36359436907E+01 0.40939099140E+01 0.47109535949E+01 0.59786165320E+01 0.87104270978E+01
 0.13565376641E+02 0.20890640339E+02 0.30613187927E+02 0.42187133416E+02 0.54613496428E+02
 0.66549039233E+02 0.76507361473E+02 0.83127009149E+02 0.85448882524E+02 0.83126997797E+02
 0.76507337338E+02 0.47517993637E+02 0.37677172729E+02 0.28093017821E+02 0.19730794552E+02
 0.13202099057E+02 0.87103354236E+01 0.60683306086E+01 0.47751774153E+01 0.41413934450E+01
 0.36690436668E+01 0.33288959435E+01 0.31177437541E+01 0.30187117771E+01 0.30187159405E+01
 0.31177646950E+01 0.33289459950E+01 0.36691193115E+01 0.41414763722E+01 0.47752511875E+01
 0.60683971038E+01 0.87104049755E+01 0.13202174053E+02 0.19730870475E+02 0.28093088588E+02
 0.37677226216E+02 0.47518010726E+02 0.56430359325E+02 0.63212230454E+02 0.66880238699E+02
 0.66880261607E+02 0.63212277038E+02 0.56430386138E+02 0.31741370071E+02 0.24329189079E+02
 0.17607407815E+02 0.12181333813E+02 0.83269611851E+01 0.59785293368E+01 0.47751791356E+01
 0.41574805747E+01 0.36862175023E+01 0.33337024724E+01 0.31006859294E+01 0.29717989442E+01
 0.29310022566E+01 0.29718122028E+01 0.31007212143E+01 0.33337672202E+01 0.36863068664E+01
 0.41575749606E+01 0.47752528233E+01 0.59785738554E+01 0.83269911221E+01 0.12181370480E+02
 0.17607459221E+02 0.24329242213E+02 0.31741401741E+02 0.38987674850E+02 0.45102303747E+02
 0.49194165446E+02 0.50633866649E+02 0.49194190181E+02 0.45102330818E+02 0.38987677580E+02
 0.19883110632E+02 0.14870584924E+02 0.10693111236E+02 0.76431152151E+01 0.57320107026E+01
 0.47108738974E+01 0.41413964540E+01 0.36862194342E+01 0.33354099327E+01 0.30924025402E+01
 0.29446655822E+01 0.28760266216E+01 0.28760343059E+01 0.29446872055E+01 0.30924406262E+01
 0.33354763011E+01 0.36863206102E+01 0.41415129276E+01 0.47109640469E+01 0.57320493050E+01
 0.76431136347E+01 0.10693098014E+02 0.14870579115E+02 0.19883117584E+02 0.25191321308E+02
 0.30097654560E+02 0.33879144197E+02 0.35938739753E+02 0.35938722696E+02 0.33879105289E+02
 0.30097617325E+02 0.25191299108E+02 0.11948987172E+02 0.90032758157E+01 0.68012066216E+01
 0.53889410593E+01 0.45971618976E+01 0.40938433872E+01 0.36690493170E+01 0.33337060187E+01
 0.30924035226E+01 0.29357710080E+01 0.28495903513E+01 0.28223147605E+01 0.28496012900E+01
 0.29357882033E+01 0.30924317201E+01 0.33337624425E+01 0.36691444530E+01 0.40939606920E+01
 0.45972611786E+01 0.53889890146E+01 0.68011984702E+01 0.90032308171E+01 0.11948937314E+02
 0.15375414758E+02 0.18848462353E+02 0.21849122225E+02 0.23885856328E+02 0.24607239917E+02
 0.23885807905E+02 0.21849063900E+02 0.18848436795E+02 0.15375436038E+02 0.73884275914E+01
 0.59617514583E+01 0.50235327986E+01 0.44532927325E+01 0.40171382487E+01 0.36358969193E+01
 0.33289022812E+01 0.31006884780E+01 0.29446653528E+01 0.28495894710E+01 0.28050647887E+01
 0.28050728327E+01 0.28496073600E+01 0.29446819934E+01 0.31007024205E+01 0.33289270159E+01
 0.36359500636E+01 0.40172229642E+01 0.44533865131E+01 0.50235977452E+01 0.59617610485E+01
 0.73883836169E+01 0.92567953729E+01 0.11363563329E+02 0.13395647958E+02 0.15005151069E+02
 0.15895160478E+02 0.15895152060E+02 0.15005140067E+02 0.13395662131E+02 0.11363614091E+02
 0.92568624154E+01 0.52538261050E+01 0.46923880219E+01 0.42857861846E+01 0.39157875473E+01
 0.35894091782E+01 0.33221165957E+01 0.31177468332E+01 0.29717980650E+01 0.28760239313E+01
 0.28223121938E+01 0.28050713080E+01 0.28223343861E+01 0.28760569587E+01 0.29718245573E+01
 0.31177554670E+01 0.33221140670E+01 0.35894182732E+01 0.39158274880E+01 0.42858514028E+01
 0.46924472774E+01 0.52538475251E+01 0.60657967146E+01 0.71030252470E+01 0.82336420004E+01
 0.92606124309E+01 0.99795590979E+01 0.10237989498E+02 0.99795959971E+01 0.92606776760E+01
 0.82337186525E+01 0.71030894936E+01 0.60658242392E+01 0.44033971174E+01 0.40931052570E+01
 0.37969279151E+01 0.35340430228E+01 0.33157410227E+01 0.31449982164E+01 0.30187098595E+01
 0.29309978178E+01 0.28760292643E+01 0.28495966531E+01 0.28496034517E+01 0.28760543240E+01
 0.29310440454E+01 0.30187629110E+01 0.31450329860E+01 0.33157452800E+01 0.35340288296E+01
 0.37969181882E+01 0.40931135672E+01 0.44034204353E+01 0.47298804634E+01 0.51344597293E+01
 0.56219712474E+01 0.61282783355E+01 0.65519017676E+01 0.67938596969E+01 0.67938912423E+01
 0.65519748189E+01 0.61283477411E+01 0.56220051374E+01 0.51344563258E+01 0.47298571398E+01
 0.38877555063E+01 0.36699483063E+01 0.34759140783E+01 0.33136481272E+01 0.31852630423E+01
 0.30884217755E+01 0.30187104288E+01 0.29718051952E+01 0.29446794766E+01 0.29357799977E+01
 0.29446737062E+01 0.29718173064E+01 0.30187584571E+01 0.30884943463E+01 0.31853267344E+01
 0.33136745085E+01 0.34758983003E+01 0.36699080968E+01 0.38877186280E+01 0.41158809455E+01
 0.43378745665E+01 0.45428955758E+01 0.47427530497E+01 0.49261300075E+01 0.50588049142E+01
 0.51075273815E+01 0.50588308431E+01 0.49261546616E+01 0.47427525415E+01 0.45428744153E+01
 0.43378590067E+01 0.41158924668E+01 0.35451969126E+01 0.34219268183E+01 0.33206364677E+01
 0.32424955453E+01 0.31852729600E+01 0.31450085954E+01 0.31177568869E+01 0.31007108746E+01
 0.30924278645E+01 0.30924170685E+01 0.31006872169E+01 0.31177417533E+01 0.31450228930E+01
 0.31853216606E+01 0.32425609225E+01 0.33206875747E+01 0.34219396081E+01 0.35451693140E+01
 0.36849941074E+01 0.38322476014E+01 0.39756237506E+01 0.41038423323E+01 0.42074655179E+01
 0.42797955223E+01 0.43170388460E+01 0.43170267878E+01 0.42797666467E+01 0.42074374836E+01
 0.41038334934E+01 0.39756437507E+01 0.38322917360E+01 0.36850431468E+01 0.33784356971E+01
 0.33412743963E+01 0.33206376775E+01 0.33136607801E+01 0.33157639015E+01 0.33221384634E+01
 0.33289339692E+01 0.33337502748E+01 0.33354551693E+01 0.33337388950E+01 0.33289036397E+01
 0.33220936449E+01 0.33157300005E+01 0.33136653246E+01 0.33206839369E+01 0.33413369435E+01
 0.33784798101E+01 0.34320785173E+01 0.34987862221E+01 0.35724886679E+01 0.36456050724E+01
 0.37106233028E+01 0.37613168965E+01 0.37933403094E+01 0.38042571799E+01 0.37933124245E+01
 0.37612921438E+01 0.37106328277E+01 0.36456517927E+01 0.35725472996E+01 0.34988241378E+01
 0.34320751753E+01 0.33784408394E+01 0.34219315866E+01 0.34759218808E+01 0.35340649469E+01
 0.35894362648E+01 0.36359308937E+01 0.36690993094E+01 0.36862804775E+01 0.36862898700E+01
 0.36691123581E+01 0.36359199888E+01 0.35893932085E+01 0.35340106785E+01 0.34758874642E+01
 0.34219349594E+01 0.33784790050E+01 0.33498001066E+01 0.33371623511E+01 0.33387137963E+01
 0.33502724132E+01 0.33666514641E+01 0.33829950948E+01 0.33956610492E+01 0.34024664523E+01
 0.34024675700E+01 0.33956726177E+01 0.33830279650E+01 0.33666970779E+01 0.33503034211E+01
 0.33387078483E+01 0.33371212654E+01 0.33497466332E+01 0.35452058191E+01 0.36699585769E+01
 0.37969510257E+01 0.39158210718E+01 0.40171748900E+01 0.40938891897E+01 0.41414479934E+01
 0.41575406739E+01 0.41414755665E+01 0.40939238017E+01 0.40171901379E+01 0.39158015929E+01
 0.37969007403E+01 0.36698989829E+01 0.35451669054E+01 0.34320800872E+01 0.33371646675E+01
 0.32631025369E+01 0.32089532300E+01 0.31713933279E+01 0.31463695517E+01 0.31304720296E+01
 0.31215689605E+01 0.31186923483E+01 0.31215928424E+01 0.31305075731E+01 0.31463937220E+01
 0.31713829082E+01 0.32089029910E+01 0.32630343777E+01 0.33371150936E+01 0.34320750583E+01
 0.38877602791E+01 0.40931247191E+01 0.42858274070E+01 0.44533432072E+01 0.45972188729E+01
 0.47109298289E+01 0.47752204232E+01 0.47752168755E+01 0.47109259346E+01 0.45972247457E+01
 0.44533556280E+01 0.42858289409E+01 0.40931007099E+01 0.38877147719E+01 0.36849971507E+01
 0.34987930688E+01 0.33387210040E+01 0.32089577705E+01 0.31088802585E+01 0.30350030620E+01
 0.29831796471E+01 0.29501430096E+01 0.29340089204E+01 0.29340167227E+01 0.29501529514E+01
 0.29831658602E+01 0.30349547413E+01 0.31088134138E+01 0.32089026853E+01 0.33387012204E+01